 Gaussian 09, Revision A.02,
 Gaussian 09:  EM64L-G09RevA.02 11-Jun-2009

 -----------------------------
 #P MP2/6-311++G** DENSITY=MP2
 -----------------------------

 ----
 14-H
 ----
 Symbolic Z-matrix:
 Charge =  1 Multiplicity = 1

                         Standard orientation:
 ---------------------------------------------------------------------
 Center     Atomic      Atomic             Coordinates (Angstroms)
 Number     Number       Type             X           Y           Z
 ---------------------------------------------------------------------
      1          6           0        0.686049   -1.911788    0.000000
      2          6           0        1.552632   -0.790742    0.000000
      3          6           0       -0.685871   -1.911851    0.000000
      4          6           0       -1.552553   -0.790867    0.000000
      5          6           0       -1.266904    0.549956    0.000000
      6          6           0        0.000000    1.206614    0.000000
      7          6           0        1.266909    0.550104    0.000000
      8          1           0       -2.126866    1.213671    0.000000
      9          1           0        2.126886    1.213799    0.000000
     10          1           0        2.611223   -1.031326    0.000000
     11          1           0        1.174737   -2.880184    0.000000
     12          1           0       -1.174461   -2.880297    0.000000
     13          1           0       -2.611128   -1.031515    0.000000
     14          7           0       -0.000206    2.547614    0.000000
     15          1           0       -0.859586    3.076913    0.000000
     16          1           0        0.859064    3.077078    0.000000
 ---------------------------------------------------------------------

 SCF Done:  E(RHF) =  -324.023893519     A.U. after   15 cycles
 E2 =    -0.1124813941D+01 EUMP2 =    -0.32514870746034D+03

 The electronic state is 1-A'.
 Alpha  occ. eigenvalues --  -15.77453 -11.52113 -11.45076 -11.45074 -11.43850
 Alpha  occ. eigenvalues --  -11.43849 -11.43546 -11.43408  -1.44640  -1.32002
 Alpha  occ. eigenvalues --   -1.24999  -1.22040  -1.09224  -1.08264  -0.95125
 Alpha  occ. eigenvalues --   -0.93528  -0.90123  -0.84924  -0.83694  -0.80767
 Alpha  occ. eigenvalues --   -0.77034  -0.73570  -0.72930  -0.70404  -0.68316
 Alpha  occ. eigenvalues --   -0.63945  -0.56340  -0.50189
 Alpha virt. eigenvalues --   -0.13401  -0.12021  -0.07676  -0.06165  -0.06133
 Alpha virt. eigenvalues --   -0.03958  -0.03936  -0.01710  -0.01232  -0.00869
 Alpha virt. eigenvalues --   -0.00740   0.01784   0.01871   0.02326   0.03948

 Mulliken atomic charges:
              1
     1  C   -0.189058
     2  C   -0.410435
     3  C   -0.189057
     4  C   -0.410583
     5  C    0.352557
     6  C   -0.359374
     7  C    0.352736
     8  H    0.238673
     9  H    0.238704
    10  H    0.251113
    11  H    0.252550
    12  H    0.252544
    13  H    0.251123
    14  N   -0.281847
    15  H    0.325178
    16  H    0.325176
 Sum of Mulliken atomic charges =   1.00000

 Dipole moment (field-independent basis, Debye):
    X=             -0.0001    Y=              1.9799    Z=              0.0000  Tot=              1.9799
 Quadrupole moment (field-independent basis, Debye-Ang):
   XX=            -29.8745   YY=            -18.0638   ZZ=            -50.0427
   XY=             -0.0011   XZ=              0.0000   YZ=              0.0000

 Normal termination of Gaussian 09 at Wed Dec 22 20:29:29 2021.
