 Gaussian 09, Revision A.02,
 Gaussian 09:  EM64L-G09RevA.02 11-Jun-2009

 -----------------------------
 #P MP2/6-311++G** DENSITY=MP2
 -----------------------------

 -------------------------------------------------
 X=COCH3 - In the original geometry missing oxygen
 -------------------------------------------------
 Symbolic Z-matrix:
 Charge =  0 Multiplicity = 1

                         Standard orientation:
 ---------------------------------------------------------------------
 Center     Atomic      Atomic             Coordinates (Angstroms)
 Number     Number       Type             X           Y           Z
 ---------------------------------------------------------------------
      1          6           0       -1.966447   -1.134835    0.000010
      2          6           0       -2.590402    0.114375    0.000052
      3          6           0       -1.821217    1.276355    0.000024
      4          6           0       -0.430639    1.191445   -0.000036
      5          6           0        0.204417   -0.057490   -0.000080
      6          6           0       -0.579811   -1.219711   -0.000057
      7          6           0        1.698924   -0.204351   -0.000171
      8          8           0        2.213266   -1.307052    0.000003
      9          6           0        2.558604    1.046241    0.000141
     10          1           0       -0.076948   -2.179019   -0.000096
     11          1           0       -2.564095   -2.039405    0.000029
     12          1           0       -3.672716    0.180872    0.000102
     13          1           0       -2.303073    2.247445    0.000052
     14          1           0        0.153569    2.103588   -0.000059
     15          1           0        3.606173    0.750086    0.000280
     16          1           0        2.355346    1.660443   -0.881970
     17          1           0        2.355049    1.660240    0.882326
 ---------------------------------------------------------------------

 SCF Done:  E(RHF) =  -382.566247108     A.U. after   17 cycles
 E2 =    -0.1304143035D+01 EUMP2 =    -0.38387039014265D+03

 The electronic state is 1-A.
 Alpha  occ. eigenvalues --  -20.54596 -11.34035 -11.25889 -11.25593 -11.25366
 Alpha  occ. eigenvalues --  -11.25017 -11.24985 -11.24725 -11.23812  -1.38949
 Alpha  occ. eigenvalues --   -1.16944  -1.05506  -1.03135  -0.99907  -0.86732
 Alpha  occ. eigenvalues --   -0.83966  -0.76476  -0.71312  -0.65820  -0.65211
 Alpha  occ. eigenvalues --   -0.62946  -0.60638  -0.60312  -0.60047  -0.55554
 Alpha  occ. eigenvalues --   -0.52626  -0.52497  -0.50583  -0.49262  -0.42031
 Alpha  occ. eigenvalues --   -0.35215  -0.34777
 Alpha virt. eigenvalues --    0.03420   0.04338   0.05089   0.06159   0.06231
 Alpha virt. eigenvalues --    0.07161   0.07636   0.08584   0.10298   0.10767
 Alpha virt. eigenvalues --    0.11112   0.12192   0.13973   0.14352   0.15414

 Mulliken atomic charges:
              1
     1  C   -0.409027
     2  C   -0.248735
     3  C   -0.494348
     4  C   -1.196307
     5  C    1.356914
     6  C    0.527592
     7  C   -0.315558
     8  O   -0.210483
     9  C   -0.531965
    10  H    0.215789
    11  H    0.199163
    12  H    0.177496
    13  H    0.202884
    14  H    0.162754
    15  H    0.219153
    16  H    0.172336
    17  H    0.172341
 Sum of Mulliken atomic charges =   0.00000

 Dipole moment (field-independent basis, Debye):
    X=             -1.7552    Y=              2.3450    Z=              0.0000  Tot=              2.9292
 Quadrupole moment (field-independent basis, Debye-Ang):
   XX=            -52.2574   YY=            -51.9364   ZZ=            -56.7430
   XY=              6.2849   XZ=             -0.0003   YZ=              0.0002

 Normal termination of Gaussian 09 at Tue Dec 14 10:57:06 2021.
