 Gaussian 09, Revision A.02,
 Gaussian 09:  EM64L-G09RevA.02 11-Jun-2009

 -----------------------------
 #P MP2/6-311++G** DENSITY=MP2
 -----------------------------

 ---
 CH-
 ---
 Symbolic Z-matrix:
 Charge =  0 Multiplicity = 1

                         Standard orientation:
 ---------------------------------------------------------------------
 Center     Atomic      Atomic             Coordinates (Angstroms)
 Number     Number       Type             X           Y           Z
 ---------------------------------------------------------------------
      1          6           0        0.000000    1.124886    0.331177
      2          6           0        0.000000    0.712382   -0.982359
      3          6           0        0.000000   -0.712382   -0.982359
      4          6           0        0.000000   -1.124886    0.331177
      5          7           0        0.000000    0.000000    1.121570
      6          1           0        0.000000    0.000000    2.127602
      7          1           0        0.000000    2.112170    0.763257
      8          1           0        0.000000    1.359416   -1.845462
      9          1           0        0.000000   -1.359416   -1.845462
     10          1           0        0.000000   -2.112170    0.763257
 ---------------------------------------------------------------------

 SCF Done:  E(RHF) =  -208.863279473     A.U. after   13 cycles
 E2 =    -0.7382256139D+00 EUMP2 =    -0.20960150508667D+03

 The electronic state is 1-A1.
 Alpha  occ. eigenvalues --  -15.60707 -11.25531 -11.25527 -11.21210 -11.21108
 Alpha  occ. eigenvalues --   -1.29139  -1.04291  -0.97852  -0.79401  -0.76803
 Alpha  occ. eigenvalues --   -0.73752  -0.59398  -0.58415  -0.56567  -0.54920
 Alpha  occ. eigenvalues --   -0.52909  -0.34656  -0.29826
 Alpha virt. eigenvalues --    0.03800   0.04948   0.05391   0.07113   0.07553
 Alpha virt. eigenvalues --    0.11143   0.13439   0.13820   0.14625   0.15496
 Alpha virt. eigenvalues --    0.16240   0.16334   0.18047   0.18291   0.19595

 Mulliken atomic charges:
              1
     1  C   -0.254495
     2  C   -0.174346
     3  C   -0.174346
     4  C   -0.254495
     5  N   -0.109158
     6  H    0.300093
     7  H    0.161753
     8  H    0.171620
     9  H    0.171620
    10  H    0.161753
 Sum of Mulliken atomic charges =   0.00000

 Dipole moment (field-independent basis, Debye):
    X=              0.0000    Y=              0.0000    Z=              1.9452  Tot=              1.9452
 Quadrupole moment (field-independent basis, Debye-Ang):
   XX=            -35.0248   YY=            -27.5867   ZZ=            -24.2378
   XY=              0.0000   XZ=              0.0000   YZ=              0.0000

 Normal termination of Gaussian 09 at Fri Dec  3 16:56:38 2021.
