 Gaussian 09, Revision A.02,
 Gaussian 09:  EM64L-G09RevA.02 11-Jun-2009

 -----------------------------
 #P MP2/6-311++G** DENSITY=MP2
 -----------------------------

 ----------
 Penta-BH2-
 ----------
 Symbolic Z-matrix:
 Charge = -1 Multiplicity = 1

                         Standard orientation:
 ---------------------------------------------------------------------
 Center     Atomic      Atomic             Coordinates (Angstroms)
 Number     Number       Type             X           Y           Z
 ---------------------------------------------------------------------
      1          6           0       -0.794095    0.000005    0.000000
      2          6           0        0.087739    1.148802    0.000000
      3          1           0       -0.250384    2.179551    0.000000
      4          6           0        1.404805    0.720193    0.000000
      5          1           0        2.289224    1.349735    0.000000
      6          6           0        0.087739   -1.148798    0.000000
      7          1           0       -0.250384   -2.179547    0.000000
      8          6           0        1.404805   -0.720191    0.000000
      9          1           0        2.289223   -1.349734    0.000000
     10          5           0       -2.278570   -0.000008    0.000000
     11          1           0       -2.915409    1.029267    0.000000
     12          1           0       -2.915380   -1.029303    0.000000
 ---------------------------------------------------------------------

 SCF Done:  E(RHF) =  -217.539937976     A.U. after   14 cycles
 E2 =    -0.8074506908D+00 EUMP2 =    -0.21834738866728D+03

 The electronic state is 1-A'.
 Alpha  occ. eigenvalues --  -11.03389 -11.03377 -11.03244 -11.03165 -10.99777
 Alpha  occ. eigenvalues --   -7.39013  -0.95053  -0.75987  -0.74557  -0.55789
 Alpha  occ. eigenvalues --   -0.54233  -0.51675  -0.43223  -0.36159  -0.33637
 Alpha  occ. eigenvalues --   -0.33183  -0.30007  -0.28881  -0.26737  -0.10143
 Alpha  occ. eigenvalues --   -0.09946
 Alpha virt. eigenvalues --    0.14741   0.15188   0.16048   0.16749   0.17683
 Alpha virt. eigenvalues --    0.18804   0.19997   0.21285   0.23398   0.25009
 Alpha virt. eigenvalues --    0.26290   0.27698   0.28129   0.28955   0.29372

 Mulliken atomic charges:
              1
     1  C   -0.174515
     2  C   -0.096460
     3  H    0.133385
     4  C   -0.330975
     5  H    0.092666
     6  C   -0.096453
     7  H    0.133386
     8  C   -0.330987
     9  H    0.092666
    10  B   -0.145946
    11  H   -0.138384
    12  H   -0.138383
 Sum of Mulliken atomic charges =  -1.00000

 Dipole moment (field-independent basis, Debye):
    X=              2.6413    Y=              0.0000    Z=              0.0000  Tot=              2.6413
 Quadrupole moment (field-independent basis, Debye-Ang):
   XX=            -57.5130   YY=            -45.4728   ZZ=            -46.8174
   XY=             -0.0001   XZ=              0.0000   YZ=              0.0000

 Normal termination of Gaussian 09 at Fri Dec  3 17:33:52 2021.
