 Gaussian 09, Revision A.02,
 Gaussian 09:  EM64L-G09RevA.02 11-Jun-2009

 -----------------------------
 #P MP2/6-311++G** DENSITY=MP2
 -----------------------------

 --
 N6
 --
 Symbolic Z-matrix:
 Charge =  0 Multiplicity = 1

                         Standard orientation:
 ---------------------------------------------------------------------
 Center     Atomic      Atomic             Coordinates (Angstroms)
 Number     Number       Type             X           Y           Z
 ---------------------------------------------------------------------
      1          7           0       -1.132327   -0.637631    0.182396
      2          7           0       -1.132308    0.637661   -0.182399
      3          7           0        0.000015    1.279604    0.000093
      4          7           0        1.132329    0.637600    0.182493
      5          7           0        1.132311   -0.637630   -0.182490
      6          7           0       -0.000020   -1.279604   -0.000094
 ---------------------------------------------------------------------

 SCF Done:  E(RHF) =  -326.504495089     A.U. after   15 cycles
 E2 =    -0.1046703605D+01 EUMP2 =    -0.32755119869382D+03

 The electronic state is 1-A.
 Alpha  occ. eigenvalues --  -15.74596 -15.74587 -15.74518 -15.74495 -15.74309
 Alpha  occ. eigenvalues --  -15.74302  -1.59187  -1.41143  -1.40618  -1.11731
 Alpha  occ. eigenvalues --   -1.09843  -0.88371  -0.77013  -0.73792  -0.66675
 Alpha  occ. eigenvalues --   -0.61583  -0.60563  -0.54436  -0.51452  -0.49645
 Alpha  occ. eigenvalues --   -0.48398
 Alpha virt. eigenvalues --   -0.02695  -0.00064   0.12263   0.13833   0.13888
 Alpha virt. eigenvalues --    0.14504   0.16021   0.16792   0.17459   0.17894
 Alpha virt. eigenvalues --    0.19074   0.19517   0.22890   0.24568   0.25635

 Mulliken atomic charges:
              1
     1  N    0.044926
     2  N    0.044924
     3  N   -0.089849
     4  N    0.044925
     5  N    0.044924
     6  N   -0.089850
 Sum of Mulliken atomic charges =   0.00000

 Dipole moment (field-independent basis, Debye):
    X=              0.0000    Y=              0.0000    Z=              0.0000  Tot=              0.0000
 Quadrupole moment (field-independent basis, Debye-Ang):
   XX=            -38.8166   YY=            -38.4490   ZZ=            -31.3521
   XY=              0.0000   XZ=              0.0000   YZ=             -0.0005

 Normal termination of Gaussian 09 at Fri Dec  3 17:07:11 2021.
