 Gaussian 09, Revision A.02,
 Gaussian 09:  EM64L-G09RevA.02 11-Jun-2009

 -----------------------------
 #P MP2/6-311++G** DENSITY=MP2
 -----------------------------

 -----------------------
 Acetylene trimerization
 -----------------------
 Symbolic Z-matrix:
 Charge =  0 Multiplicity = 1

                         Standard orientation:
 ---------------------------------------------------------------------
 Center     Atomic      Atomic             Coordinates (Angstroms)
 Number     Number       Type             X           Y           Z
 ---------------------------------------------------------------------
      1          6           0       -1.151754    1.366558    0.000000
      2          6           0        0.000000    1.787096    0.000000
      3          6           0        1.759490    0.314231    0.000000
      4          6           0       -1.547911   -0.893513    0.000000
      5          6           0        1.548345   -0.893519    0.000000
      6          6           0       -0.608105   -1.680949    0.000000
      7          1           0        0.729765    2.561162    0.000000
      8          1           0       -2.208608    1.488055    0.000000
      9          1           0       -2.583048   -0.648206    0.000000
     10          1           0        2.392812    1.168973    0.000000
     11          1           0       -0.184259   -2.656652    0.000000
     12          1           0        1.852950   -1.912756    0.000000
 ---------------------------------------------------------------------

 SCF Done:  E(RHF) =  -230.393714501     A.U. after   12 cycles
 E2 =    -0.8745133196D+00 EUMP2 =    -0.23126822782021D+03

 The electronic state is 1-A'.
 Alpha  occ. eigenvalues --  -11.23909 -11.23907 -11.23907 -11.23578 -11.23577
 Alpha  occ. eigenvalues --  -11.23575  -1.04490  -1.01325  -1.01322  -0.78362
 Alpha  occ. eigenvalues --   -0.78362  -0.71480  -0.69115  -0.64693  -0.64687
 Alpha  occ. eigenvalues --   -0.49155  -0.42439  -0.38323  -0.38319  -0.33766
 Alpha  occ. eigenvalues --   -0.33745
 Alpha virt. eigenvalues --    0.04318   0.04447   0.04447   0.06210   0.06212
 Alpha virt. eigenvalues --    0.08444   0.11184   0.11184   0.11742   0.11755
 Alpha virt. eigenvalues --    0.13395   0.14993   0.16528   0.16529   0.17648

 Mulliken atomic charges:
              1
     1  C   -0.227260
     2  C   -0.226468
     3  C   -0.226557
     4  C   -0.226308
     5  C   -0.227082
     6  C   -0.227419
     7  H    0.226883
     8  H    0.226813
     9  H    0.226938
    10  H    0.226880
    11  H    0.226792
    12  H    0.226788
 Sum of Mulliken atomic charges =   0.00000

 Dipole moment (field-independent basis, Debye):
    X=             -0.0001    Y=             -0.0002    Z=              0.0000  Tot=              0.0002
 Quadrupole moment (field-independent basis, Debye-Ang):
   XX=            -30.0299   YY=            -30.0243   ZZ=            -41.6025
   XY=             -0.0023   XZ=              0.0000   YZ=              0.0000

 Normal termination of Gaussian 09 at Fri Dec  3 17:55:47 2021.
