 Gaussian 09, Revision A.02,
 Gaussian 09:  EM64L-G09RevA.02 11-Jun-2009

 -----------------------------
 #P MP2/6-311++G** DENSITY=MP2
 -----------------------------

 ------------------
 Dibenzo-anthracene
 ------------------
 Symbolic Z-matrix:
 Charge =  0 Multiplicity = 1

                         Standard orientation:
 ---------------------------------------------------------------------
 Center     Atomic      Atomic             Coordinates (Angstroms)
 Number     Number       Type             X           Y           Z
 ---------------------------------------------------------------------
      1          6           0        0.383383   -2.868228    0.000000
      2          6           0        0.215896   -1.417070    0.000000
      3          6           0       -1.106712   -0.867793    0.000000
      4          6           0       -2.239471   -1.752229    0.000000
      5          6           0       -2.080603   -3.098260    0.000000
      6          6           0       -0.773289   -3.697298    0.000000
      7          6           0       -1.285739    0.520283    0.000000
      8          6           0       -0.215896    1.417070    0.000000
      9          6           0        1.106712    0.867793    0.000000
     10          6           0        1.285738   -0.520283    0.000000
     11          6           0        2.239472    1.752228    0.000000
     12          6           0        2.080604    3.098261    0.000000
     13          6           0        0.773289    3.697298    0.000000
     14          6           0       -0.383383    2.868228    0.000000
     15          6           0       -1.647232    3.495295    0.000000
     16          6           0       -1.769512    4.872665    0.000000
     17          6           0       -0.625131    5.685843    0.000000
     18          6           0        0.625130    5.100859    0.000000
     19          6           0        1.647232   -3.495296    0.000000
     20          6           0        1.769512   -4.872665    0.000000
     21          6           0        0.625130   -5.685843    0.000000
     22          6           0       -0.625131   -5.100859    0.000000
     23          1           0       -3.232778   -1.315614    0.000000
     24          1           0       -2.945319   -3.753617    0.000000
     25          1           0       -2.304244    0.888895    0.000000
     26          1           0        2.304244   -0.888894    0.000000
     27          1           0        3.232778    1.315615    0.000000
     28          1           0        2.945319    3.753617    0.000000
     29          1           0       -2.548377    2.895601    0.000000
     30          1           0       -2.754944    5.324796    0.000000
     31          1           0       -0.724222    6.765360    0.000000
     32          1           0        1.517454    5.718420    0.000000
     33          1           0        2.548378   -2.895602    0.000000
     34          1           0        2.754943   -5.324796    0.000000
     35          1           0        0.724221   -6.765360    0.000000
     36          1           0       -1.517454   -5.718420    0.000000
 ---------------------------------------------------------------------

 SCF Done:  E(RHF) =  -841.480995594     A.U. after   15 cycles
 E2 =    -0.3000600840D+01 EUMP2 =    -0.84448159643440D+03

 The electronic state is 1-A'.
 Alpha  occ. eigenvalues --  -11.25499 -11.25499 -11.25414 -11.25414 -11.25161
 Alpha  occ. eigenvalues --  -11.25157 -11.25072 -11.25072 -11.24311 -11.24311
 Alpha  occ. eigenvalues --  -11.24278 -11.24277 -11.24236 -11.24236 -11.24189
 Alpha  occ. eigenvalues --  -11.24189 -11.24156 -11.24156 -11.24096 -11.24096
 Alpha  occ. eigenvalues --  -11.24001 -11.24001  -1.19923  -1.17912  -1.14692
 Alpha  occ. eigenvalues --   -1.11415  -1.08252  -1.06934  -1.03643  -1.03045
 Alpha  occ. eigenvalues --   -1.00572  -0.98224  -0.97126  -0.88351  -0.86959
 Alpha  occ. eigenvalues --   -0.84531  -0.84126  -0.82615  -0.79642  -0.76987
 Alpha  occ. eigenvalues --   -0.72718  -0.71479  -0.70064  -0.68812  -0.67333
 Alpha  occ. eigenvalues --   -0.65729  -0.63701  -0.62143  -0.61416  -0.60620
 Alpha  occ. eigenvalues --   -0.59745  -0.59613  -0.58801  -0.57753  -0.57385
 Alpha  occ. eigenvalues --   -0.55906  -0.54375  -0.53749  -0.53267  -0.52482
 Alpha  occ. eigenvalues --   -0.50172  -0.49100  -0.48864  -0.48206  -0.46839
 Alpha  occ. eigenvalues --   -0.45042  -0.41326  -0.40068  -0.35664  -0.34457
 Alpha  occ. eigenvalues --   -0.31497  -0.28216  -0.26593
 Alpha virt. eigenvalues --    0.03678   0.04048   0.04068   0.04830   0.04969
 Alpha virt. eigenvalues --    0.05255   0.06099   0.06125   0.06463   0.07590
 Alpha virt. eigenvalues --    0.07940   0.09397   0.09541   0.09588   0.09690

 Mulliken atomic charges:
              1
     1  C    0.694002
     2  C    0.470094
     3  C    0.260936
     4  C   -0.235047
     5  C   -0.314723
     6  C    0.607570
     7  C   -0.336804
     8  C    0.470094
     9  C    0.260939
    10  C   -0.336803
    11  C   -0.235048
    12  C   -0.314724
    13  C    0.607571
    14  C    0.694002
    15  C   -0.688045
    16  C   -0.574448
    17  C   -0.437817
    18  C   -0.361331
    19  C   -0.688045
    20  C   -0.574449
    21  C   -0.437815
    22  C   -0.361331
    23  H    0.191766
    24  H    0.159507
    25  H   -0.096788
    26  H   -0.096788
    27  H    0.191766
    28  H    0.159507
    29  H    0.125056
    30  H    0.203754
    31  H    0.179207
    32  H    0.153108
    33  H    0.125056
    34  H    0.203754
    35  H    0.179207
    36  H    0.153108
 Sum of Mulliken atomic charges =   0.00000

 Dipole moment (field-independent basis, Debye):
    X=              0.0000    Y=              0.0000    Z=              0.0000  Tot=              0.0000
 Quadrupole moment (field-independent basis, Debye-Ang):
   XX=           -113.2124   YY=           -111.4503   ZZ=           -139.7615
   XY=             -0.3527   XZ=              0.0000   YZ=              0.0000

 Normal termination of Gaussian 09 at Wed Dec 22 17:29:28 2021.
