 Gaussian 16, Revision A.03,
 Gaussian 16:  ES64L-G16RevA.03 25-Dec-2016

 ------------------------------------
 #P MP2/6-311++G** nosymm Density=MP2
 ------------------------------------

 --------
 Chair-20
 --------
 Symbolic Z-matrix:
 Charge =  0 Multiplicity = 1

                          Input orientation:
 ---------------------------------------------------------------------
 Center     Atomic      Atomic             Coordinates (Angstroms)
 Number     Number       Type             X           Y           Z
 ---------------------------------------------------------------------
      1          6           0        1.374708    0.000000    0.080748
      2          6           0        0.695628    1.211781   -0.080748
      3          6           0       -0.695628    1.211781    0.080748
      4          6           0       -1.374708    0.000000   -0.080748
      5          6           0       -0.695628   -1.211781    0.080748
      6          6           0        0.695628   -1.211781   -0.080748
      7          1           0        2.460841    0.000000    0.068279
      8          1           0        1.247443    2.145881   -0.063980
      9          1           0       -1.247443    2.145881    0.063980
     10          1           0       -2.460841    0.000000   -0.068279
     11          1           0       -1.247443   -2.145881    0.063980
     12          1           0        1.247443   -2.145881   -0.063980
 ---------------------------------------------------------------------

 SCF Done:  E(RHF) =  -230.734332919     A.U. after   12 cycles
 E2 =    -0.8346298216D+00 EUMP2 =    -0.23156896274108D+03

 Alpha  occ. eigenvalues --  -11.24063 -11.24034 -11.23974 -11.23915 -11.23819
 Alpha  occ. eigenvalues --  -11.23794  -1.15275  -1.01665  -1.01443  -0.82460
 Alpha  occ. eigenvalues --   -0.82158  -0.71001  -0.64513  -0.61386  -0.59108
 Alpha  occ. eigenvalues --   -0.58516  -0.50152  -0.49844  -0.49237  -0.33455
 Alpha  occ. eigenvalues --   -0.33306
 Alpha virt. eigenvalues --    0.04205   0.04923   0.04937   0.06704   0.06720
 Alpha virt. eigenvalues --    0.09932   0.10443   0.10634   0.10974   0.13240
 Alpha virt. eigenvalues --    0.14955   0.15014   0.16305   0.18258   0.18358

 Mulliken charges:
               1
     1  C   -0.163740
     2  C   -0.175469
     3  C   -0.175469
     4  C   -0.163740
     5  C   -0.175469
     6  C   -0.175469
     7  H    0.169730
     8  H    0.172474
     9  H    0.172474
    10  H    0.169730
    11  H    0.172474
    12  H    0.172474
 Sum of Mulliken charges =  -0.00000

 Dipole moment (field-independent basis, Debye):
    X=              0.0000    Y=             -0.0000    Z=             -0.0000  Tot=              0.0000
 Quadrupole moment (field-independent basis, Debye-Ang):
   XX=            -32.8916   YY=            -32.6202   ZZ=            -40.8193
   XY=              0.0000   XZ=              0.0053   YZ=              0.0000

 Normal termination of Gaussian 16 at Wed Feb 12 16:23:26 2025.
