 Gaussian 09, Revision A.02,
 Gaussian 09:  EM64L-G09RevA.02 11-Jun-2009

 -----------------------------
 #P MP2/6-311++G** DENSITY=MP2
 -----------------------------

 -----
 C7H7+
 -----
 Symbolic Z-matrix:
 Charge =  1 Multiplicity = 1

                         Standard orientation:
 ---------------------------------------------------------------------
 Center     Atomic      Atomic             Coordinates (Angstroms)
 Number     Number       Type             X           Y           Z
 ---------------------------------------------------------------------
      1          6           0        1.257700    1.002974    0.000000
      2          6           0        0.000000    1.608629    0.000000
      3          6           0        1.568323   -0.357952    0.000000
      4          6           0        0.697961   -1.449323    0.000000
      5          6           0       -0.697974   -1.449331    0.000000
      6          6           0       -1.568313   -0.357957    0.000000
      7          6           0       -1.257695    1.002961    0.000000
      8          1           0       -1.168997   -2.427393    0.000000
      9          1           0       -2.626658   -0.599517    0.000000
     10          1           0       -2.106433    1.679796    0.000000
     11          1           0       -0.000017    2.694203    0.000000
     12          1           0        2.106438    1.679809    0.000000
     13          1           0        2.626677   -0.599508    0.000000
     14          1           0        1.168971   -2.427393    0.000000
 ---------------------------------------------------------------------

 SCF Done:  E(RHF) =  -268.951866348     A.U. after   10 cycles
 E2 =    -0.9421252154D+00 EUMP2 =    -0.26989399156299D+03

 The electronic state is 1-A'.
 Alpha  occ. eigenvalues --  -11.46675 -11.46632 -11.46632 -11.46530 -11.46530
 Alpha  occ. eigenvalues --  -11.46448 -11.46448  -1.35490  -1.26559  -1.26559
 Alpha  occ. eigenvalues --   -1.10590  -1.10590  -0.93224  -0.93223  -0.91682
 Alpha  occ. eigenvalues --   -0.82738  -0.82738  -0.75993  -0.75993  -0.70536
 Alpha  occ. eigenvalues --   -0.70536  -0.69638  -0.56836  -0.56836
 Alpha virt. eigenvalues --   -0.15628  -0.15627  -0.07963  -0.06293  -0.06293
 Alpha virt. eigenvalues --   -0.03964  -0.03964  -0.01645  -0.00903  -0.00903
 Alpha virt. eigenvalues --   -0.00842   0.01175   0.01176   0.05263   0.05263

 Mulliken atomic charges:
              1
     1  C   -0.124378
     2  C   -0.124368
     3  C   -0.124368
     4  C   -0.124372
     5  C   -0.124359
     6  C   -0.124357
     7  C   -0.124354
     8  H    0.267226
     9  H    0.267216
    10  H    0.267225
    11  H    0.267221
    12  H    0.267224
    13  H    0.267224
    14  H    0.267221
 Sum of Mulliken atomic charges =   1.00000

 Dipole moment (field-independent basis, Debye):
    X=              0.0000    Y=              0.0000    Z=              0.0000  Tot=              0.0000
 Quadrupole moment (field-independent basis, Debye-Ang):
   XX=            -23.5065   YY=            -23.5071   ZZ=            -42.4931
   XY=              0.0001   XZ=              0.0000   YZ=              0.0000

 Normal termination of Gaussian 09 at Fri Dec  3 17:06:11 2021.
