 Gaussian 09, Revision A.02,
 Gaussian 09:  EM64L-G09RevA.02 11-Jun-2009

 -----------------------------
 #P MP2/6-311++G** DENSITY=MP2
 -----------------------------

 --------
 Bla-0.05
 --------
 Symbolic Z-matrix:
 Charge =  0 Multiplicity = 1

                         Standard orientation:
 ---------------------------------------------------------------------
 Center     Atomic      Atomic             Coordinates (Angstroms)
 Number     Number       Type             X           Y           Z
 ---------------------------------------------------------------------
      1          6           0        0.684832    1.215031    0.000000
      2          6           0        1.394664   -0.014434    0.000000
      3          6           0        0.709832   -1.200597    0.000000
      4          6           0       -0.709832   -1.200597    0.000000
      5          6           0       -1.394664   -0.014434    0.000000
      6          6           0       -0.684832    1.215031    0.000000
      7          1           0        1.227044    2.154171    0.000000
      8          1           0        2.479089   -0.014434    0.000000
      9          1           0        1.252045   -2.139737    0.000000
     10          1           0       -1.252045   -2.139737    0.000000
     11          1           0       -2.479089   -0.014434    0.000000
     12          1           0       -1.227044    2.154171    0.000000
 ---------------------------------------------------------------------

 SCF Done:  E(RHF) =  -230.754618563     A.U. after   12 cycles
 E2 =    -0.8272064715D+00 EUMP2 =    -0.23158182503469D+03

 The electronic state is 1-A1'.
 Alpha  occ. eigenvalues --  -11.23868 -11.23811 -11.23811 -11.23684 -11.23684
 Alpha  occ. eigenvalues --  -11.23625  -1.15224  -1.01694  -1.01694  -0.82452
 Alpha  occ. eigenvalues --   -0.82452  -0.71058  -0.64421  -0.62060  -0.58989
 Alpha  occ. eigenvalues --   -0.58989  -0.50203  -0.49517  -0.49517  -0.33796
 Alpha  occ. eigenvalues --   -0.33796
 Alpha virt. eigenvalues --    0.04213   0.04897   0.04897   0.06626   0.06626
 Alpha virt. eigenvalues --    0.08808   0.10969   0.10969   0.12930   0.15268
 Alpha virt. eigenvalues --    0.15268   0.15803   0.16284   0.18107   0.18107

 Mulliken atomic charges:
              1
     1  C   -0.178070
     2  C   -0.178070
     3  C   -0.178070
     4  C   -0.178070
     5  C   -0.178070
     6  C   -0.178070
     7  H    0.178070
     8  H    0.178070
     9  H    0.178070
    10  H    0.178070
    11  H    0.178070
    12  H    0.178070
 Sum of Mulliken atomic charges =   0.00000

 Dipole moment (field-independent basis, Debye):
    X=              0.0000    Y=              0.0000    Z=              0.0000  Tot=              0.0000
 Quadrupole moment (field-independent basis, Debye-Ang):
   XX=            -32.5477   YY=            -32.5477   ZZ=            -40.7993
   XY=              0.0000   XZ=              0.0000   YZ=              0.0000

 Normal termination of Gaussian 09 at Fri Dec  3 12:41:01 2021.
