 Gaussian 09, Revision A.02,
 Gaussian 09:  EM64L-G09RevA.02 11-Jun-2009

 -----------------------------
 #P MP2/6-311++G** DENSITY=MP2
 -----------------------------

 -------
 X=CONH2
 -------
 Symbolic Z-matrix:
 Charge =  0 Multiplicity = 1

                         Standard orientation:
 ---------------------------------------------------------------------
 Center     Atomic      Atomic             Coordinates (Angstroms)
 Number     Number       Type             X           Y           Z
 ---------------------------------------------------------------------
      1          6           0        1.851353    1.226452   -0.139939
      2          6           0        0.458778    1.191721   -0.157092
      3          6           0       -0.219649   -0.024785   -0.016842
      4          6           0        0.516469   -1.205618    0.127165
      5          6           0        1.906512   -1.168583    0.154592
      6          6           0        2.576961    0.047675    0.022338
      7          6           0       -1.718716   -0.136805   -0.037537
      8          1           0       -0.021349   -2.141548    0.213656
      9          1           0        2.468339   -2.087769    0.275026
     10          1           0        3.660611    0.075871    0.038132
     11          1           0        2.368628    2.171268   -0.261619
     12          1           0       -0.090656    2.112739   -0.315911
     13          8           0       -2.285185   -1.181193   -0.314109
     14          7           0       -2.418507    1.008154    0.252455
     15          1           0       -3.419148    0.909874    0.335093
     16          1           0       -1.985654    1.771688    0.745201
 ---------------------------------------------------------------------

 SCF Done:  E(RHF) =  -398.589796663     A.U. after   17 cycles
 E2 =    -0.1333330471D+01 EUMP2 =    -0.39992312713423D+03

 The electronic state is 1-A.
 Alpha  occ. eigenvalues --  -20.52430 -15.58788 -11.36390 -11.25983 -11.25800
 Alpha  occ. eigenvalues --  -11.25502 -11.25113 -11.25070 -11.24808  -1.38812
 Alpha  occ. eigenvalues --   -1.21554  -1.16828  -1.04326  -1.03162  -0.88213
 Alpha  occ. eigenvalues --   -0.84349  -0.79392  -0.74907  -0.69998  -0.67564
 Alpha  occ. eigenvalues --   -0.64287  -0.62366  -0.60521  -0.59937  -0.57786
 Alpha  occ. eigenvalues --   -0.52649  -0.50971  -0.50825  -0.43593  -0.41860
 Alpha  occ. eigenvalues --   -0.35314  -0.34895
 Alpha virt. eigenvalues --    0.03291   0.04223   0.04979   0.06155   0.07085
 Alpha virt. eigenvalues --    0.07258   0.08369   0.08592   0.10136   0.11818
 Alpha virt. eigenvalues --    0.12452   0.13325   0.14053   0.14920   0.16110

 Mulliken atomic charges:
              1
     1  C   -0.022331
     2  C   -0.937088
     3  C    1.374323
     4  C   -0.595266
     5  C   -0.017116
     6  C   -0.452509
     7  C   -0.164549
     8  H    0.214722
     9  H    0.201383
    10  H    0.183063
    11  H    0.198015
    12  H    0.164328
    13  O   -0.301415
    14  N   -0.415625
    15  H    0.334948
    16  H    0.235118
 Sum of Mulliken atomic charges =   0.00000

 Dipole moment (field-independent basis, Debye):
    X=              1.4685    Y=              2.8960    Z=              1.3690  Tot=              3.5239
 Quadrupole moment (field-independent basis, Debye-Ang):
   XX=            -49.0359   YY=            -49.7788   ZZ=            -56.9550
   XY=             -8.0821   XZ=             -3.6262   YZ=             -0.0896

 Normal termination of Gaussian 09 at Fri Dec  3 14:17:41 2021.
