 Gaussian 09, Revision A.02,
 Gaussian 09:  EM64L-G09RevA.02 11-Jun-2009

 -----------------------------
 #P MP2/6-311++G** DENSITY=MP2
 -----------------------------

 -------
 Boat-20
 -------
 Symbolic Z-matrix:
 Charge =  0 Multiplicity = 1

                         Standard orientation:
 ---------------------------------------------------------------------
 Center     Atomic      Atomic             Coordinates (Angstroms)
 Number     Number       Type             X           Y           Z
 ---------------------------------------------------------------------
      1          6           0        0.029892    1.392300   -0.081098
      2          6           0       -1.194732    0.715372   -0.081098
      3          6           0       -1.194732   -0.660375    0.161103
      4          6           0       -0.029892   -1.392300   -0.081098
      5          6           0        1.194732   -0.715372   -0.081098
      6          6           0        1.194732    0.660375    0.161103
      7          1           0        0.061432    2.474478   -0.135515
      8          1           0       -2.127911    1.264244   -0.135841
      9          1           0       -2.139168   -1.182351    0.277922
     10          1           0       -0.061432   -2.474478   -0.135515
     11          1           0        2.127911   -1.264244   -0.135841
     12          1           0        2.139168    1.182351    0.277922
 ---------------------------------------------------------------------

 SCF Done:  E(RHF) =  -230.738593679     A.U. after   14 cycles
 E2 =    -0.8326464339D+00 EUMP2 =    -0.23157124011304D+03

 The electronic state is 1-A.
 Alpha  occ. eigenvalues --  -11.23952 -11.23921 -11.23864 -11.23801 -11.23711
 Alpha  occ. eigenvalues --  -11.23684  -1.15346  -1.01506  -1.01451  -0.82267
 Alpha  occ. eigenvalues --   -0.82248  -0.71054  -0.64643  -0.61577  -0.59091
 Alpha  occ. eigenvalues --   -0.58653  -0.50945  -0.49766  -0.48660  -0.33308
 Alpha  occ. eigenvalues --   -0.33260
 Alpha virt. eigenvalues --    0.04181   0.04907   0.04996   0.06620   0.07093
 Alpha virt. eigenvalues --    0.09170   0.09827   0.10985   0.12012   0.14369
 Alpha virt. eigenvalues --    0.15131   0.16409   0.16570   0.17955   0.18114

 Mulliken atomic charges:
              1
     1  C   -0.171455
     2  C   -0.171249
     3  C   -0.181153
     4  C   -0.171455
     5  C   -0.171249
     6  C   -0.181153
     7  H    0.177872
     8  H    0.177898
     9  H    0.168088
    10  H    0.177872
    11  H    0.177898
    12  H    0.168088
 Sum of Mulliken atomic charges =   0.00000

 Dipole moment (field-independent basis, Debye):
    X=              0.0000    Y=              0.0000    Z=              0.0041  Tot=              0.0041
 Quadrupole moment (field-independent basis, Debye-Ang):
   XX=            -32.8336   YY=            -32.6602   ZZ=            -40.6595
   XY=             -0.1372   XZ=              0.0000   YZ=              0.0000

 Normal termination of Gaussian 09 at Fri Dec  3 15:01:19 2021.
