 Gaussian 09, Revision A.02,
 Gaussian 09:  EM64L-G09RevA.02 11-Jun-2009

 -----------------------------
 #P MP2/6-311++G** DENSITY=MP2
 -----------------------------

 --------
 X=COOCH3
 --------
 Symbolic Z-matrix:
 Charge =  0 Multiplicity = 1

                         Standard orientation:
 ---------------------------------------------------------------------
 Center     Atomic      Atomic             Coordinates (Angstroms)
 Number     Number       Type             X           Y           Z
 ---------------------------------------------------------------------
      1          6           0        2.212600    1.234960    0.000000
      2          6           0        1.391589    0.110944    0.000000
      3          6           0        0.000000    0.262493    0.000000
      4          6           0       -0.558994    1.545477    0.000000
      5          6           0        0.264917    2.665692    0.000000
      6          6           0        1.651567    2.511785    0.000000
      7          6           0       -0.928811   -0.903650    0.000000
      8          1           0       -1.637451    1.643543    0.000000
      9          1           0       -0.171788    3.657705    0.000000
     10          1           0        2.293834    3.385380    0.000000
     11          1           0        3.289940    1.115424    0.000000
     12          1           0        1.820124   -0.882343    0.000000
     13          8           0       -2.135733   -0.820042    0.000000
     14          8           0       -0.274498   -2.086246    0.000000
     15          6           0       -1.103943   -3.261437    0.000000
     16          1           0       -0.414340   -4.102650    0.000000
     17          1           0       -1.736015   -3.282167    0.888720
     18          1           0       -1.736015   -3.282167   -0.888720
 ---------------------------------------------------------------------

 SCF Done:  E(RHF) =  -457.461637058     A.U. after   18 cycles
 E2 =    -0.1497561850D+01 EUMP2 =    -0.45895919890806D+03

 The electronic state is 1-A'.
 Alpha  occ. eigenvalues --  -20.60476 -20.54519 -11.38837 -11.28921 -11.25660
 Alpha  occ. eigenvalues --  -11.25517 -11.25450 -11.25211 -11.24687 -11.24615
 Alpha  occ. eigenvalues --   -1.46303  -1.36121  -1.16943  -1.05245  -1.02986
 Alpha  occ. eigenvalues --   -0.97447  -0.86690  -0.83953  -0.78022  -0.74028
 Alpha  occ. eigenvalues --   -0.68792  -0.67403  -0.67201  -0.63477  -0.63003
 Alpha  occ. eigenvalues --   -0.60252  -0.58645  -0.56195  -0.53428  -0.52455
 Alpha  occ. eigenvalues --   -0.50702  -0.50485  -0.46512  -0.45410  -0.35178
 Alpha  occ. eigenvalues --   -0.34758
 Alpha virt. eigenvalues --    0.03697   0.04329   0.05001   0.06072   0.06859
 Alpha virt. eigenvalues --    0.07289   0.07937   0.08214   0.08741   0.10493
 Alpha virt. eigenvalues --    0.11600   0.12617   0.13190   0.14025   0.14587

 Mulliken atomic charges:
              1
     1  C    0.080786
     2  C   -0.750142
     3  C    1.211539
     4  C   -0.582974
     5  C   -0.064695
     6  C   -0.531957
     7  C   -0.296506
     8  H    0.206049
     9  H    0.207214
    10  H    0.178122
    11  H    0.208945
    12  H    0.215708
    13  O   -0.252180
    14  O   -0.088048
    15  C   -0.266641
    16  H    0.156814
    17  H    0.183983
    18  H    0.183983
 Sum of Mulliken atomic charges =   0.00000

 Dipole moment (field-independent basis, Debye):
    X=              1.6902    Y=             -0.4115    Z=              0.0000  Tot=              1.7395
 Quadrupole moment (field-independent basis, Debye-Ang):
   XX=            -60.4303   YY=            -46.3030   ZZ=            -61.9597
   XY=              2.1085   XZ=              0.0000   YZ=              0.0000

 Normal termination of Gaussian 09 at Fri Dec  3 14:36:21 2021.
