 Gaussian 09, Revision A.02,
 Gaussian 09:  EM64L-G09RevA.02 11-Jun-2009

 ------------------------------------------
 #P MP2/6-311++G** IRC=(CalcFC,MaxCycle=50)
 ------------------------------------------

 -----------------------
 Acetylene trimerization
 -----------------------
 Symbolic Z-matrix:
 Charge =  0 Multiplicity = 1

 SCF Done:  E(RHF) =  -230.393714501     A.U. after   12 cycles
 E2 =    -0.8745133196D+00 EUMP2 =    -0.23126822782021D+03
 E2 =    -0.8745133196D+00 EUMP2 =    -0.23126822782021D+03
 SCF Done:  E(RHF) =  -230.393276435     A.U. after   13 cycles
 E2 =    -0.8750631159D+00 EUMP2 =    -0.23126833955046D+03
 SCF Done:  E(RHF) =  -230.390660454     A.U. after   13 cycles
 E2 =    -0.8787802315D+00 EUMP2 =    -0.23126944068588D+03
 SCF Done:  E(RHF) =  -230.391739759     A.U. after   12 cycles
 E2 =    -0.8774909528D+00 EUMP2 =    -0.23126923071167D+03
 SCF Done:  E(RHF) =  -230.392081165     A.U. after   12 cycles
 E2 =    -0.8769814384D+00 EUMP2 =    -0.23126906260317D+03
 SCF Done:  E(RHF) =  -230.392400563     A.U. after   11 cycles
 E2 =    -0.8765055843D+00 EUMP2 =    -0.23126890614689D+03
 SCF Done:  E(RHF) =  -230.392696840     A.U. after   11 cycles
 E2 =    -0.8760684553D+00 EUMP2 =    -0.23126876529496D+03
 SCF Done:  E(RHF) =  -230.392945707     A.U. after   11 cycles
 E2 =    -0.8756986983D+00 EUMP2 =    -0.23126864440488D+03
 SCF Done:  E(RHF) =  -230.393144556     A.U. after   11 cycles
 E2 =    -0.8753997882D+00 EUMP2 =    -0.23126854434467D+03
 SCF Done:  E(RHF) =  -230.385145376     A.U. after   14 cycles
 E2 =    -0.8839102680D+00 EUMP2 =    -0.23126905564352D+03
 E2 =    -0.8787292574D+00 EUMP2 =    -0.23126982996579D+03
 E2 =    -0.8818253477D+00 EUMP2 =    -0.23126927709086D+03
 E2 =    -0.8792232465D+00 EUMP2 =    -0.23126966267291D+03
 E2 =    -0.8803890016D+00 EUMP2 =    -0.23126937730162D+03
 E2 =    -0.8787310840D+00 EUMP2 =    -0.23126955516052D+03
 E2 =    -0.8795696603D+00 EUMP2 =    -0.23126943413922D+03
 E2 =    -0.8782916758D+00 EUMP2 =    -0.23126947881669D+03
 E2 =    -0.8790269625D+00 EUMP2 =    -0.23126942405069D+03
 E2 =    -0.8782291706D+00 EUMP2 =    -0.23126942969925D+03
 E2 =    -0.8809907690D+00 EUMP2 =    -0.23126960621299D+03
 E2 =    -0.8801318437D+00 EUMP2 =    -0.23126971241135D+03
 E2 =    -0.8801036377D+00 EUMP2 =    -0.23126971548683D+03
 E2 =    -0.8797138022D+00 EUMP2 =    -0.23126974490746D+03
 E2 =    -0.8795966478D+00 EUMP2 =    -0.23126976502877D+03
 E2 =    -0.8793081243D+00 EUMP2 =    -0.23126980690778D+03
 E2 =    -0.8819185919D+00 EUMP2 =    -0.23126949952503D+03
 E2 =    -0.8799970030D+00 EUMP2 =    -0.23126996828305D+03
 E2 =    -0.8798050726D+00 EUMP2 =    -0.23127001496426D+03
 E2 =    -0.8792234110D+00 EUMP2 =    -0.23127010645313D+03
 SCF Done:  E(RHF) =  -230.391235931     A.U. after   12 cycles
 E2 =    -0.8789163159D+00 EUMP2 =    -0.23127015224662D+03
 SCF Done:  E(RHF) =  -230.391499958     A.U. after   12 cycles
 E2 =    -0.8786828250D+00 EUMP2 =    -0.23127018278308D+03
 SCF Done:  E(RHF) =  -230.391671479     A.U. after   11 cycles
 E2 =    -0.8785280051D+00 EUMP2 =    -0.23127019948422D+03
 SCF Done:  E(RHF) =  -230.394154449     A.U. after   16 cycles
 E2 =    -0.8768639441D+00 EUMP2 =    -0.23127101839354D+03
 SCF Done:  E(RHF) =  -230.394994220     A.U. after   12 cycles
 E2 =    -0.8761206252D+00 EUMP2 =    -0.23127111484570D+03
 SCF Done:  E(RHF) =  -230.398956785     A.U. after   14 cycles
 E2 =    -0.8733195047D+00 EUMP2 =    -0.23127227629007D+03
 SCF Done:  E(RHF) =  -230.399301895     A.U. after   12 cycles
 E2 =    -0.8730536518D+00 EUMP2 =    -0.23127235554730D+03
 SCF Done:  E(RHF) =  -230.403863680     A.U. after   13 cycles
 E2 =    -0.8699286497D+00 EUMP2 =    -0.23127379232950D+03
 SCF Done:  E(RHF) =  -230.404145003     A.U. after   12 cycles
 E2 =    -0.8697240846D+00 EUMP2 =    -0.23127386908745D+03
 SCF Done:  E(RHF) =  -230.409081316     A.U. after   13 cycles
 E2 =    -0.8664535208D+00 EUMP2 =    -0.23127553483732D+03

                          Input orientation:
 ---------------------------------------------------------------------
 Center     Atomic      Atomic             Coordinates (Angstroms)
 Number     Number       Type             X           Y           Z
 ---------------------------------------------------------------------
      1          6           0       -1.169923    1.419421   -0.010314
      2          6           0       -0.014474    1.837645    0.011084
      3          6           0        1.809881    0.307800    0.012395
      4          6           0       -1.580561   -0.927590   -0.016699
      5          6           0        1.601669   -0.902115   -0.016228
      6          6           0       -0.641993   -1.718699    0.021214
      7          1           0        0.817045    2.481329    0.172206
      8          1           0       -2.222045    1.398870   -0.165096
      9          1           0       -2.568199   -0.537198   -0.050661
     10          1           0        2.330355    1.234476    0.005966
     11          1           0       -0.090598   -2.623689    0.105234
     12          1           0        1.752867   -1.953108   -0.063985
 ---------------------------------------------------------------------

 Alpha  occ. eigenvalues --  -11.24036 -11.23985 -11.23977 -11.23709 -11.23654
 Alpha  occ. eigenvalues --  -11.23649  -1.03991  -1.01165  -1.01148  -0.79425
 Alpha  occ. eigenvalues --   -0.79410  -0.72092  -0.70373  -0.65082  -0.64971
 Alpha  occ. eigenvalues --   -0.47749  -0.42115  -0.38540  -0.38512  -0.34745
 Alpha  occ. eigenvalues --   -0.34737
 Alpha virt. eigenvalues --    0.04255   0.04386   0.04430   0.06481   0.06520
 Alpha virt. eigenvalues --    0.08552   0.10648   0.10921   0.11844   0.12648
 Alpha virt. eigenvalues --    0.13812   0.14670   0.16276   0.16473   0.17731

 Mulliken atomic charges:
              1
     1  C   -0.198843
     2  C   -0.224073
     3  C   -0.182062
     4  C   -0.257222
     5  C   -0.349016
     6  C   -0.270335
     7  H    0.211979
     8  H    0.217081
     9  H    0.267280
    10  H    0.277080
    11  H    0.257861
    12  H    0.250271
 Sum of Mulliken atomic charges =   0.00000

 Dipole moment (field-independent basis, Debye):
    X=              0.0119    Y=             -0.0125    Z=              0.0017  Tot=              0.0173
 Quadrupole moment (field-independent basis, Debye-Ang):
   XX=            -30.2657   YY=            -30.3332   ZZ=            -42.2073
   XY=             -0.0301   XZ=              0.6654   YZ=              0.1006

  Exact polarizability:   0.000   0.000   0.000   0.000   0.000   0.000
 Approx polarizability:  79.756  -0.162  79.962   0.211   0.040  41.075

 Normal termination of Gaussian 09 at Tue Dec  7 17:39:15 2021.
