 Gaussian 09, Revision A.02,
 Gaussian 09:  EM64L-G09RevA.02 11-Jun-2009

 -----------------------------
 #P MP2/6-311++G** DENSITY=MP2
 -----------------------------

 -------
 Bla-0.2
 -------
 Symbolic Z-matrix:
 Charge =  0 Multiplicity = 1

                         Standard orientation:
 ---------------------------------------------------------------------
 Center     Atomic      Atomic             Coordinates (Angstroms)
 Number     Number       Type             X           Y           Z
 ---------------------------------------------------------------------
      1          6           0        0.647332    1.236681    0.000000
      2          6           0        1.394663   -0.057735    0.000000
      3          6           0        0.747331   -1.178946    0.000000
      4          6           0       -0.747331   -1.178946    0.000000
      5          6           0       -1.394663   -0.057735    0.000000
      6          6           0       -0.647332    1.236681    0.000000
      7          1           0        1.189544    2.175821    0.000000
      8          1           0        2.479088   -0.057735    0.000000
      9          1           0        1.289544   -2.118086    0.000000
     10          1           0       -1.289544   -2.118086    0.000000
     11          1           0       -2.479088   -0.057735    0.000000
     12          1           0       -1.189544    2.175821    0.000000
 ---------------------------------------------------------------------

 SCF Done:  E(RHF) =  -230.729462576     A.U. after   12 cycles
 E2 =    -0.8183226726D+00 EUMP2 =    -0.23154778524884D+03

 The electronic state is 1-A1'.
 Alpha  occ. eigenvalues --  -11.23311 -11.23264 -11.23264 -11.23079 -11.23079
 Alpha  occ. eigenvalues --  -11.23029  -1.15372  -1.02538  -1.02538  -0.81454
 Alpha  occ. eigenvalues --   -0.81454  -0.71020  -0.64097  -0.61795  -0.59560
 Alpha  occ. eigenvalues --   -0.59560  -0.50302  -0.48295  -0.48295  -0.34954
 Alpha  occ. eigenvalues --   -0.34954
 Alpha virt. eigenvalues --    0.04235   0.04907   0.04907   0.06640   0.06640
 Alpha virt. eigenvalues --    0.08820   0.11584   0.11584   0.12865   0.15392
 Alpha virt. eigenvalues --    0.15392   0.15827   0.16294   0.18109   0.18109

 Mulliken atomic charges:
              1
     1  C   -0.176914
     2  C   -0.176914
     3  C   -0.176914
     4  C   -0.176914
     5  C   -0.176914
     6  C   -0.176914
     7  H    0.176914
     8  H    0.176914
     9  H    0.176914
    10  H    0.176914
    11  H    0.176914
    12  H    0.176914
 Sum of Mulliken atomic charges =   0.00000

 Dipole moment (field-independent basis, Debye):
    X=              0.0000    Y=              0.0000    Z=              0.0000  Tot=              0.0000
 Quadrupole moment (field-independent basis, Debye-Ang):
   XX=            -32.4916   YY=            -32.4916   ZZ=            -40.5644
   XY=              0.0000   XZ=              0.0000   YZ=              0.0000

 Normal termination of Gaussian 09 at Fri Dec  3 20:22:39 2021.
