 Gaussian 16, Revision A.03,
 Gaussian 16:  ES64L-G16RevA.03 25-Dec-2016

 ------------------------------------
 #P MP2/6-311++G** nosymm Density=MP2
 ------------------------------------

 --------
 Chair-10
 --------
 Symbolic Z-matrix:
 Charge =  0 Multiplicity = 1

                          Input orientation:
 ---------------------------------------------------------------------
 Center     Atomic      Atomic             Coordinates (Angstroms)
 Number     Number       Type             X           Y           Z
 ---------------------------------------------------------------------
      1          6           0        1.389740    0.000000    0.040519
      2          6           0        0.696878    1.208747   -0.040519
      3          6           0       -0.696878    1.208747    0.040519
      4          6           0       -1.389740    0.000000   -0.040519
      5          6           0       -0.696878   -1.208747    0.040519
      6          6           0        0.696878   -1.208747   -0.040519
      7          1           0        2.474583    0.000000    0.032636
      8          1           0        1.241448    2.146672   -0.031956
      9          1           0       -1.241448    2.146672    0.031956
     10          1           0       -2.474583    0.000000   -0.032636
     11          1           0       -1.241448   -2.146672    0.031956
     12          1           0        1.241448   -2.146672   -0.031956
 ---------------------------------------------------------------------

 SCF Done:  E(RHF) =  -230.750694447     A.U. after   12 cycles
 E2 =    -0.8308352071D+00 EUMP2 =    -0.23158152965437D+03

 Alpha  occ. eigenvalues --  -11.23945 -11.23897 -11.23879 -11.23775 -11.23754
 Alpha  occ. eigenvalues --  -11.23704  -1.15231  -1.01644  -1.01589  -0.82506
 Alpha  occ. eigenvalues --   -0.82432  -0.71046  -0.64458  -0.61905  -0.58987
 Alpha  occ. eigenvalues --   -0.58842  -0.50191  -0.49666  -0.49511  -0.33640
 Alpha  occ. eigenvalues --   -0.33610
 Alpha virt. eigenvalues --    0.04210   0.04902   0.04906   0.06646   0.06651
 Alpha virt. eigenvalues --    0.09723   0.10797   0.10845   0.11342   0.14771
 Alpha virt. eigenvalues --    0.15176   0.15185   0.16290   0.18159   0.18177

 Mulliken charges:
               1
     1  C   -0.172180
     2  C   -0.175552
     3  C   -0.175552
     4  C   -0.172180
     5  C   -0.175552
     6  C   -0.175552
     7  H    0.173929
     8  H    0.174677
     9  H    0.174677
    10  H    0.173929
    11  H    0.174677
    12  H    0.174677
 Sum of Mulliken charges =  -0.00000

 Dipole moment (field-independent basis, Debye):
    X=              0.0000    Y=             -0.0000    Z=              0.0000  Tot=              0.0000
 Quadrupole moment (field-independent basis, Debye-Ang):
   XX=            -32.6424   YY=            -32.5744   ZZ=            -40.8442
   XY=             -0.0000   XZ=              0.0013   YZ=             -0.0000

 Normal termination of Gaussian 16 at Wed Feb 12 16:23:26 2025.
