 Gaussian 09, Revision A.02,
 Gaussian 09:  EM64L-G09RevA.02 11-Jun-2009

 -----------------------------
 #P MP2/6-311++G** DENSITY=MP2
 -----------------------------

 ------
 X=COCl
 ------
 Symbolic Z-matrix:
 Charge =  0 Multiplicity = 1

                         Standard orientation:
 ---------------------------------------------------------------------
 Center     Atomic      Atomic             Coordinates (Angstroms)
 Number     Number       Type             X           Y           Z
 ---------------------------------------------------------------------
      1          6           0        2.594516    1.266902    0.000000
      2          6           0        1.503343    2.137280    0.000000
      3          6           0        0.210882    1.630118    0.000000
      4          6           0        0.000000    0.241608    0.000000
      5          6           0        1.097026   -0.627421    0.000000
      6          6           0        2.389263   -0.111751    0.000000
      7          1           0        0.938262   -1.696660    0.000000
      8          1           0        3.236054   -0.787720    0.000000
      9          1           0        3.603378    1.663658    0.000000
     10          1           0        1.661540    3.209273    0.000000
     11          1           0       -0.645890    2.291773    0.000000
     12          6           0       -1.412284   -0.212076    0.000000
     13         17           0       -1.652515   -2.028579    0.000000
     14          8           0       -2.374633    0.482195    0.000000
 ---------------------------------------------------------------------

 SCF Done:  E(RHF) =  -802.448655631     A.U. after   18 cycles
 E2 =    -0.1291802977D+01 EUMP2 =    -0.80374045860802D+03

 The electronic state is 1-A'.
 Alpha  occ. eigenvalues -- -104.84189 -20.59300 -11.41827 -11.28119 -11.27411
 Alpha  occ. eigenvalues --  -11.27254 -11.27247 -11.26219 -11.26189 -10.56835
 Alpha  occ. eigenvalues --   -8.03638  -8.03363  -8.03357  -1.45188  -1.18980
 Alpha  occ. eigenvalues --   -1.12300  -1.05938  -1.04701  -0.89882  -0.85819
 Alpha  occ. eigenvalues --   -0.78867  -0.73308  -0.68396  -0.67907  -0.64088
 Alpha  occ. eigenvalues --   -0.62851  -0.61886  -0.60886  -0.54624  -0.52447
 Alpha  occ. eigenvalues --   -0.52408  -0.46963  -0.46371  -0.45033  -0.37050
 Alpha  occ. eigenvalues --   -0.36429
 Alpha virt. eigenvalues --    0.03194   0.04391   0.04508   0.05140   0.06981
 Alpha virt. eigenvalues --    0.07300   0.09124   0.10431   0.10801   0.11668
 Alpha virt. eigenvalues --    0.12484   0.13539   0.13855   0.15333   0.15349

 Mulliken atomic charges:
              1
     1  C   -0.509118
     2  C   -0.037546
     3  C   -0.169007
     4  C    2.486966
     5  C   -1.523699
     6  C   -0.127057
     7  H    0.160930
     8  H    0.219853
     9  H    0.189777
    10  H    0.213279
    11  H    0.207493
    12  C   -1.450225
    13  Cl   0.403410
    14  O   -0.065056
 Sum of Mulliken atomic charges =   0.00000

 Dipole moment (field-independent basis, Debye):
    X=              3.6880    Y=              1.2823    Z=              0.0000  Tot=              3.9046
 Quadrupole moment (field-independent basis, Debye-Ang):
   XX=            -60.2746   YY=            -55.5556   ZZ=            -62.1794
   XY=              0.1014   XZ=              0.0000   YZ=              0.0000

 Normal termination of Gaussian 09 at Fri Dec  3 14:32:32 2021.
