 Gaussian 09, Revision A.02,
 Gaussian 09:  EM64L-G09RevA.02 11-Jun-2009

 -----------------------------
 #P MP2/6-311++G** DENSITY=MP2
 -----------------------------

 -----
 X=CCH
 -----
 Symbolic Z-matrix:
 Charge =  0 Multiplicity = 1

                         Standard orientation:
 ---------------------------------------------------------------------
 Center     Atomic      Atomic             Coordinates (Angstroms)
 Number     Number       Type             X           Y           Z
 ---------------------------------------------------------------------
      1          6           0        0.000609   -2.209655    0.000000
      2          6           0       -1.206111   -1.510255    0.000000
      3          6           0       -1.210765   -0.119555    0.000000
      4          6           0        0.000000    0.593807    0.000000
      5          6           0        1.211014   -0.118967    0.000000
      6          6           0        1.206971   -1.509699    0.000000
      7          6           0       -0.000485    2.021987    0.000000
      8          1           0        2.146431    0.427389    0.000000
      9          1           0        2.147733   -2.048484    0.000000
     10          1           0        0.000861   -3.293691    0.000000
     11          1           0       -2.146617   -2.049491    0.000000
     12          1           0       -2.146381    0.426446    0.000000
     13          6           0       -0.001594    3.227049    0.000000
     14          1           0        0.000141    4.289554    0.000000
 ---------------------------------------------------------------------

 SCF Done:  E(RHF) =  -306.447151905     A.U. after   15 cycles
 E2 =    -0.1084674163D+01 EUMP2 =    -0.30753182606775D+03

 The electronic state is 1-A'.
 Alpha  occ. eigenvalues --  -11.26953 -11.25087 -11.25083 -11.24899 -11.24628
 Alpha  occ. eigenvalues --  -11.24601 -11.24189 -11.23170  -1.17011  -1.06937
 Alpha  occ. eigenvalues --   -1.02794  -1.00020  -0.85735  -0.83873  -0.74968
 Alpha  occ. eigenvalues --   -0.70644  -0.66846  -0.64021  -0.61272  -0.59896
 Alpha  occ. eigenvalues --   -0.52567  -0.52148  -0.50846  -0.43082  -0.39936
 Alpha  occ. eigenvalues --   -0.34742  -0.32186
 Alpha virt. eigenvalues --    0.03732   0.04553   0.04852   0.05958   0.06923
 Alpha virt. eigenvalues --    0.07755   0.08146   0.10377   0.11878   0.11931
 Alpha virt. eigenvalues --    0.12919   0.13119   0.15019   0.15318   0.15640

 Mulliken atomic charges:
              1
     1  C   -0.718303
     2  C    0.339338
     3  C   -1.393914
     4  C    0.739144
     5  C   -1.389997
     6  C    0.337743
     7  C    1.289257
     8  H    0.135369
     9  H    0.207060
    10  H    0.177609
    11  H    0.207120
    12  H    0.135213
    13  C   -0.239522
    14  H    0.173882
 Sum of Mulliken atomic charges =   0.00000

 Dipole moment (field-independent basis, Debye):
    X=              0.0023    Y=             -0.5712    Z=              0.0000  Tot=              0.5712
 Quadrupole moment (field-independent basis, Debye-Ang):
   XX=            -43.3308   YY=            -39.1644   ZZ=            -52.0401
   XY=              0.0080   XZ=              0.0000   YZ=              0.0000

 Normal termination of Gaussian 09 at Fri Dec  3 12:48:33 2021.
