 Gaussian 09, Revision A.02,
 Gaussian 09:  EM64L-G09RevA.02 11-Jun-2009

 -----------------------------
 #P MP2/6-311++G** DENSITY=MP2
 -----------------------------

 ------------
 Benzo-pyrene
 ------------
 Symbolic Z-matrix:
 Charge =  0 Multiplicity = 1

                         Standard orientation:
 ---------------------------------------------------------------------
 Center     Atomic      Atomic             Coordinates (Angstroms)
 Number     Number       Type             X           Y           Z
 ---------------------------------------------------------------------
      1          6           0       -0.918645   -3.524067    0.000000
      2          6           0        0.297569   -2.843503    0.000000
      3          6           0        0.356047   -1.444797    0.000000
      4          6           0       -0.867842   -0.717353    0.000000
      5          6           0       -2.110651   -1.420619    0.000000
      6          6           0       -2.113133   -2.823732    0.000000
      7          6           0       -3.337736   -0.678098    0.000000
      8          6           0       -3.337735    0.678096    0.000000
      9          6           0       -2.110654    1.420620    0.000000
     10          6           0       -0.867842    0.717353    0.000000
     11          6           0        0.356046    1.444797    0.000000
     12          6           0        1.624608    0.709685    0.000000
     13          6           0        1.624606   -0.709685    0.000000
     14          6           0        0.297566    2.843503    0.000000
     15          6           0       -0.918646    3.524069    0.000000
     16          6           0       -2.113134    2.823731    0.000000
     17          6           0        2.864569   -1.382586    0.000000
     18          6           0        4.065085   -0.699619    0.000000
     19          6           0        4.065085    0.699620    0.000000
     20          6           0        2.864569    1.382587    0.000000
     21          1           0       -0.923552   -4.608188    0.000000
     22          1           0        1.207566   -3.427479    0.000000
     23          1           0       -3.060941   -3.351185    0.000000
     24          1           0       -4.272087   -1.229433    0.000000
     25          1           0       -4.272090    1.229426    0.000000
     26          1           0        1.207563    3.427480    0.000000
     27          1           0       -0.923555    4.608189    0.000000
     28          1           0       -3.060943    3.351182    0.000000
     29          1           0        2.889844   -2.463617    0.000000
     30          1           0        4.999975   -1.248289    0.000000
     31          1           0        4.999977    1.248286    0.000000
     32          1           0        2.889844    2.463618    0.000000
 ---------------------------------------------------------------------

 SCF Done:  E(RHF) =  -764.570665915     A.U. after   17 cycles
 E2 =    -0.2724260401D+01 EUMP2 =    -0.76729492631606D+03

 The electronic state is 1-A'.
 Alpha  occ. eigenvalues --  -11.25621 -11.25578 -11.25535 -11.25468 -11.25286
 Alpha  occ. eigenvalues --  -11.25206 -11.25098 -11.25085 -11.24308 -11.24171
 Alpha  occ. eigenvalues --  -11.24171 -11.24167 -11.24157 -11.24129 -11.24042
 Alpha  occ. eigenvalues --  -11.24042 -11.24037 -11.23981 -11.23981 -11.23959
 Alpha  occ. eigenvalues --   -1.20662  -1.16218  -1.15292  -1.10295  -1.07596
 Alpha  occ. eigenvalues --   -1.06048  -1.01829  -1.01411  -0.98836  -0.97411
 Alpha  occ. eigenvalues --   -0.86791  -0.86352  -0.86189  -0.85376  -0.80029
 Alpha  occ. eigenvalues --   -0.76740  -0.74372  -0.73326  -0.69759  -0.68265
 Alpha  occ. eigenvalues --   -0.66067  -0.65393  -0.64593  -0.62357  -0.60995
 Alpha  occ. eigenvalues --   -0.59485  -0.59456  -0.58916  -0.57646  -0.56667
 Alpha  occ. eigenvalues --   -0.55719  -0.53748  -0.52233  -0.52044  -0.51162
 Alpha  occ. eigenvalues --   -0.51131  -0.49955  -0.47047  -0.46749  -0.43632
 Alpha  occ. eigenvalues --   -0.39831  -0.38567  -0.33606  -0.32974  -0.28953
 Alpha  occ. eigenvalues --   -0.26558
 Alpha virt. eigenvalues --    0.03709   0.04157   0.04193   0.05129   0.05229
 Alpha virt. eigenvalues --    0.05396   0.06593   0.06757   0.07314   0.08555
 Alpha virt. eigenvalues --    0.08609   0.08884   0.10273   0.10885   0.11067

 Mulliken atomic charges:
              1
     1  C   -0.390422
     2  C   -0.791105
     3  C    0.982583
     4  C   -0.051610
     5  C    0.545225
     6  C   -0.206829
     7  C   -0.220972
     8  C   -0.220972
     9  C    0.545223
    10  C   -0.051616
    11  C    0.982583
    12  C    1.013492
    13  C    1.013490
    14  C   -0.791111
    15  C   -0.390420
    16  C   -0.206828
    17  C   -1.115132
    18  C   -0.621726
    19  C   -0.621731
    20  C   -1.115132
    21  H    0.218035
    22  H    0.068431
    23  H    0.130456
    24  H    0.156276
    25  H    0.156277
    26  H    0.068431
    27  H    0.218036
    28  H    0.130456
    29  H    0.084241
    30  H    0.199065
    31  H    0.199065
    32  H    0.084241
 Sum of Mulliken atomic charges =   0.00000

 Dipole moment (field-independent basis, Debye):
    X=              0.0722    Y=              0.0000    Z=              0.0000  Tot=              0.0722
 Quadrupole moment (field-independent basis, Debye-Ang):
   XX=           -101.5836   YY=           -101.7481   ZZ=           -126.1640
   XY=              0.0000   XZ=              0.0000   YZ=              0.0000

 Normal termination of Gaussian 09 at Fri Dec  3 16:11:40 2021.
