 Gaussian 09, Revision A.02,
 Gaussian 09:  EM64L-G09RevA.02 11-Jun-2009

 -----------------------------
 #P MP2/6-311++G** DENSITY=MP2
 -----------------------------

 --------
 Chair-25
 --------
 Symbolic Z-matrix:
 Charge =  0 Multiplicity = 1

                         Standard orientation:
 ---------------------------------------------------------------------
 Center     Atomic      Atomic             Coordinates (Angstroms)
 Number     Number       Type             X           Y           Z
 ---------------------------------------------------------------------
      1          6           0        0.100642    1.363277    0.000000
      2          6           0       -0.100642    0.694758    1.214164
      3          6           0        0.100642   -0.694758    1.214164
      4          6           0       -0.100642   -1.363277    0.000000
      5          6           0        0.100642   -0.694758   -1.214164
      6          6           0       -0.100642    0.694758   -1.214164
      7          1           0        0.087930    2.450392    0.000000
      8          1           0       -0.079819    1.252113    2.145278
      9          1           0        0.079819   -1.252113    2.145278
     10          1           0       -0.087930   -2.450392    0.000000
     11          1           0        0.079819   -1.252113   -2.145278
     12          1           0       -0.079819    1.252113   -2.145278
 ---------------------------------------------------------------------

 SCF Done:  E(RHF) =  -230.721959725     A.U. after   11 cycles
 E2 =    -0.8369361680D+00 EUMP2 =    -0.23155889589345D+03

 The electronic state is 1-AG.
 Alpha  occ. eigenvalues --  -11.24162 -11.24140 -11.24064 -11.24023 -11.23862
 Alpha  occ. eigenvalues --  -11.23849  -1.15312  -1.01684  -1.01332  -0.82427
 Alpha  occ. eigenvalues --   -0.81953  -0.70973  -0.64565  -0.61012  -0.59194
 Alpha  occ. eigenvalues --   -0.58264  -0.50123  -0.49974  -0.49046  -0.33334
 Alpha  occ. eigenvalues --   -0.33070
 Alpha virt. eigenvalues --    0.04200   0.04939   0.04960   0.06743   0.06765
 Alpha virt. eigenvalues --    0.09915   0.10184   0.10482   0.10946   0.12605
 Alpha virt. eigenvalues --    0.14809   0.14918   0.16314   0.18292   0.18477

 Mulliken atomic charges:
              1
     1  C   -0.158386
     2  C   -0.174808
     3  C   -0.174808
     4  C   -0.158386
     5  C   -0.174808
     6  C   -0.174808
     7  H    0.166778
     8  H    0.170612
     9  H    0.170612
    10  H    0.166778
    11  H    0.170612
    12  H    0.170612
 Sum of Mulliken atomic charges =   0.00000

 Dipole moment (field-independent basis, Debye):
    X=              0.0000    Y=              0.0000    Z=              0.0000  Tot=              0.0000
 Quadrupole moment (field-independent basis, Debye-Ang):
   XX=            -40.7941   YY=            -33.0798   ZZ=            -32.6598
   XY=              0.0083   XZ=              0.0000   YZ=              0.0000

 Normal termination of Gaussian 09 at Fri Dec  3 12:06:38 2021.
