 Gaussian 09, Revision A.02,
 Gaussian 09:  EM64L-G09RevA.02 11-Jun-2009

 -----------------------------
 #P MP2/6-311++G** DENSITY=MP2
 -----------------------------

 -------
 Bla-0.1
 -------
 Symbolic Z-matrix:
 Charge =  0 Multiplicity = 1

                         Standard orientation:
 ---------------------------------------------------------------------
 Center     Atomic      Atomic             Coordinates (Angstroms)
 Number     Number       Type             X           Y           Z
 ---------------------------------------------------------------------
      1          6           0        0.672332    1.222247    0.000000
      2          6           0        1.394663   -0.028867    0.000000
      3          6           0        0.722331   -1.193380    0.000000
      4          6           0       -0.722331   -1.193380    0.000000
      5          6           0       -1.394663   -0.028867    0.000000
      6          6           0       -0.672332    1.222247    0.000000
      7          1           0        1.214544    2.161387    0.000000
      8          1           0        2.479088   -0.028868    0.000000
      9          1           0        1.264544   -2.132520    0.000000
     10          1           0       -1.264544   -2.132520    0.000000
     11          1           0       -2.479088   -0.028868    0.000000
     12          1           0       -1.214544    2.161387    0.000000
 ---------------------------------------------------------------------

 SCF Done:  E(RHF) =  -230.750041640     A.U. after   11 cycles
 E2 =    -0.8250578339D+00 EUMP2 =    -0.23157509947430D+03

 The electronic state is 1-A1'.
 Alpha  occ. eigenvalues --  -11.23745 -11.23691 -11.23691 -11.23552 -11.23552
 Alpha  occ. eigenvalues --  -11.23495  -1.15247  -1.01862  -1.01862  -0.82241
 Alpha  occ. eigenvalues --   -0.82241  -0.71044  -0.64351  -0.62001  -0.59109
 Alpha  occ. eigenvalues --   -0.59109  -0.50215  -0.49255  -0.49255  -0.34048
 Alpha  occ. eigenvalues --   -0.34048
 Alpha virt. eigenvalues --    0.04218   0.04899   0.04899   0.06630   0.06630
 Alpha virt. eigenvalues --    0.08811   0.11115   0.11115   0.12916   0.15294
 Alpha virt. eigenvalues --    0.15294   0.15807   0.16287   0.18107   0.18107

 Mulliken atomic charges:
              1
     1  C   -0.177851
     2  C   -0.177851
     3  C   -0.177851
     4  C   -0.177851
     5  C   -0.177851
     6  C   -0.177851
     7  H    0.177851
     8  H    0.177851
     9  H    0.177851
    10  H    0.177851
    11  H    0.177851
    12  H    0.177851
 Sum of Mulliken atomic charges =   0.00000

 Dipole moment (field-independent basis, Debye):
    X=              0.0000    Y=              0.0000    Z=              0.0000  Tot=              0.0000
 Quadrupole moment (field-independent basis, Debye-Ang):
   XX=            -32.5355   YY=            -32.5355   ZZ=            -40.7538
   XY=              0.0000   XZ=              0.0000   YZ=              0.0000

 Normal termination of Gaussian 09 at Fri Dec  3 11:04:07 2021.
