 Gaussian 09, Revision A.02,
 Gaussian 09:  EM64L-G09RevA.02 11-Jun-2009

 -----------------------------
 #P MP2/6-311++G** DENSITY=MP2
 -----------------------------

 ---------
 Penta-CH2
 ---------
 Symbolic Z-matrix:
 Charge =  0 Multiplicity = 1

                         Standard orientation:
 ---------------------------------------------------------------------
 Center     Atomic      Atomic             Coordinates (Angstroms)
 Number     Number       Type             X           Y           Z
 ---------------------------------------------------------------------
      1          6           0        0.000000    0.759956    0.000000
      2          6           0       -1.178320   -0.125629    0.000000
      3          1           0       -2.202957    0.217753    0.000000
      4          6           0       -0.737261   -1.403679    0.000000
      5          1           0       -1.350343   -2.294931    0.000000
      6          6           0        1.178321   -0.125625    0.000000
      7          1           0        2.202956    0.217760    0.000000
      8          6           0        0.737265   -1.403677    0.000000
      9          1           0        1.350354   -2.294927    0.000000
     10          6           0       -0.000005    2.101827    0.000000
     11          1           0       -0.925181    2.667650    0.000000
     12          1           0        0.925166    2.667658    0.000000
 ---------------------------------------------------------------------

 SCF Done:  E(RHF) =  -230.699405470     A.U. after   14 cycles
 E2 =    -0.8273470498D+00 EUMP2 =    -0.23152675251938D+03

 The electronic state is 1-A'.
 Alpha  occ. eigenvalues --  -11.25227 -11.24710 -11.23571 -11.23494 -11.22944
 Alpha  occ. eigenvalues --  -11.22941  -1.16470  -1.02875  -0.97147  -0.86208
 Alpha  occ. eigenvalues --   -0.74505  -0.72795  -0.68930  -0.60942  -0.56706
 Alpha  occ. eigenvalues --   -0.55807  -0.52231  -0.50252  -0.49185  -0.34536
 Alpha  occ. eigenvalues --   -0.31018
 Alpha virt. eigenvalues --    0.03971   0.04925   0.05010   0.05464   0.06526
 Alpha virt. eigenvalues --    0.07081   0.08992   0.10980   0.13168   0.14009
 Alpha virt. eigenvalues --    0.14441   0.15261   0.16131   0.17034   0.17369

 Mulliken atomic charges:
              1
     1  C    0.980568
     2  C   -0.679938
     3  H    0.166615
     4  C   -0.128538
     5  H    0.182925
     6  C   -0.679949
     7  H    0.166615
     8  C   -0.128526
     9  H    0.182926
    10  C   -0.374445
    11  H    0.155874
    12  H    0.155873
 Sum of Mulliken atomic charges =   0.00000

 Dipole moment (field-independent basis, Debye):
    X=              0.0000    Y=              0.6443    Z=              0.0000  Tot=              0.6443
 Quadrupole moment (field-independent basis, Debye-Ang):
   XX=            -33.5900   YY=            -31.0194   ZZ=            -41.0302
   XY=              0.0000   XZ=              0.0000   YZ=              0.0000

 Normal termination of Gaussian 09 at Fri Dec  3 17:33:28 2021.
