 Gaussian 09, Revision A.02,
 Gaussian 09:  EM64L-G09RevA.02 11-Jun-2009

 -----------------------------
 #P MP2/6-311++G** DENSITY=MP2
 -----------------------------

 ----------
 Cr complex
 ----------
 Symbolic Z-matrix:
 Charge =  0 Multiplicity = 1

                         Standard orientation:
 ---------------------------------------------------------------------
 Center     Atomic      Atomic             Coordinates (Angstroms)
 Number     Number       Type             X           Y           Z
 ---------------------------------------------------------------------
      1          6           0        0.702453   -1.227729   -1.612897
      2          6           0       -0.702453   -1.227729   -1.612897
      3          1           0        2.497560    0.003464   -1.580046
      4          6           0        1.414471    0.005522   -1.612897
      5          6           0       -1.414471    0.005522   -1.612897
      6          6           0       -0.712018    1.222207   -1.612897
      7          6           0        0.712018    1.222207   -1.612897
      8          1           0       -2.497560    0.003464   -1.580046
      9          1           0       -1.251780    2.161218   -1.580046
     10          1           0        1.251780    2.161218   -1.580046
     11         24           0        0.000000    0.000000    0.107268
     12          6           0        0.000000    1.510267    1.178287
     13          8           0        0.000000    2.475062    1.823373
     14          6           0        1.307930   -0.755134    1.178287
     15          8           0        2.143467   -1.237531    1.823373
     16          6           0       -1.307930   -0.755134    1.178287
     17          8           0       -2.143467   -1.237531    1.823373
     18          1           0        1.245780   -2.164682   -1.580046
     19          1           0       -1.245780   -2.164682   -1.580046
 ---------------------------------------------------------------------

 SCF Done:  E(RHF) =  -1612.18054745     A.U. after   27 cycles
 E2 =    -0.2270274360D+01 EUMP2 =    -0.16144508218089D+04

 The electronic state is 1-A1.
 Alpha  occ. eigenvalues -- -220.56721 -26.42743 -22.36571 -22.36571 -22.36462
 Alpha  occ. eigenvalues --  -20.61822 -20.61822 -20.61822 -11.34794 -11.34793
 Alpha  occ. eigenvalues --  -11.34793 -11.28826 -11.28774 -11.28774 -11.28663
 Alpha  occ. eigenvalues --  -11.28663 -11.28608  -3.45600  -2.22143  -2.21293
 Alpha  occ. eigenvalues --   -2.21293  -1.46485  -1.46382  -1.46382  -1.20407
 Alpha  occ. eigenvalues --   -1.06664  -1.06664  -0.87084  -0.87084  -0.79459
 Alpha  occ. eigenvalues --   -0.76677  -0.76677  -0.75887  -0.68806  -0.66139
 Alpha  occ. eigenvalues --   -0.65778  -0.64127  -0.64127  -0.61330  -0.61318
 Alpha  occ. eigenvalues --   -0.61318  -0.59783  -0.59783  -0.59287  -0.56667
 Alpha  occ. eigenvalues --   -0.56667  -0.53980  -0.53980  -0.53489  -0.41630
 Alpha  occ. eigenvalues --   -0.41630  -0.36970  -0.29510  -0.29510
 Alpha virt. eigenvalues --    0.01887   0.04189   0.04189   0.05525   0.05924
 Alpha virt. eigenvalues --    0.05924   0.08230   0.08683   0.08683   0.08905
 Alpha virt. eigenvalues --    0.09690   0.09690   0.10686   0.13095   0.13329

 Mulliken atomic charges:
              1
     1  C   -0.264059
     2  C   -0.264059
     3  H    0.224529
     4  C   -0.264061
     5  C   -0.264061
     6  C   -0.264058
     7  C   -0.264058
     8  H    0.224529
     9  H    0.224530
    10  H    0.224530
    11  Cr   1.852856
    12  C   -0.396645
    13  O   -0.141914
    14  C   -0.396644
    15  O   -0.141914
    16  C   -0.396644
    17  O   -0.141914
    18  H    0.224529
    19  H    0.224529
 Sum of Mulliken atomic charges =   0.00000

 Dipole moment (field-independent basis, Debye):
    X=              0.0000    Y=              0.0000    Z=             -5.9497  Tot=              5.9497
 Quadrupole moment (field-independent basis, Debye-Ang):
   XX=            -83.3888   YY=            -83.3888   ZZ=            -90.4842
   XY=              0.0000   XZ=              0.0000   YZ=              0.0000

 Normal termination of Gaussian 09 at Fri Dec  3 17:19:52 2021.
