 Gaussian 16, Revision A.03,
 Gaussian 16:  ES64L-G16RevA.03 25-Dec-2016

 ------------------------------------
 #P MP2/6-311++G** nosymm Density=MP2
 ------------------------------------

 --------
 Clamp-10
 --------
 Symbolic Z-matrix:
 Charge =  0 Multiplicity = 1

                          Input orientation:
 ---------------------------------------------------------------------
 Center     Atomic      Atomic             Coordinates (Angstroms)
 Number     Number       Type             X           Y           Z
 ---------------------------------------------------------------------
      1          6           0        1.397529    0.009623    0.000000
      2          6           0        0.707079    1.205443    0.000000
      3          6           0       -0.707079    1.205443    0.000000
      4          6           0       -1.397529    0.009623    0.000000
      5          6           0       -0.690415   -1.215058    0.000000
      6          6           0        0.690415   -1.215058    0.000000
      7          1           0        2.465434   -0.178706    0.000000
      8          1           0        1.077957    2.224417    0.000000
      9          1           0       -1.077957    2.224417    0.000000
     10          1           0       -2.465434   -0.178706    0.000000
     11          1           0       -1.387412   -2.045754    0.000000
     12          1           0        1.387412   -2.045754    0.000000
 ---------------------------------------------------------------------

 SCF Done:  E(RHF) =  -230.733004775     A.U. after   12 cycles
 E2 =    -0.8308871144D+00 EUMP2 =    -0.23156389188909D+03

 Alpha  occ. eigenvalues --  -11.24082 -11.24026 -11.24026 -11.23903 -11.23903
 Alpha  occ. eigenvalues --  -11.23844  -1.15199  -1.01791  -1.01791  -0.82752
 Alpha  occ. eigenvalues --   -0.82751  -0.71799  -0.64145  -0.61609  -0.58979
 Alpha  occ. eigenvalues --   -0.58978  -0.50168  -0.49010  -0.49009  -0.33775
 Alpha  occ. eigenvalues --   -0.33775
 Alpha virt. eigenvalues --    0.04202   0.04891   0.04891   0.06646   0.06646
 Alpha virt. eigenvalues --    0.08833   0.10803   0.10804   0.12921   0.15263
 Alpha virt. eigenvalues --    0.15263   0.15689   0.16206   0.17717   0.17717

 Mulliken charges:
               1
     1  C   -0.177656
     2  C   -0.177651
     3  C   -0.177651
     4  C   -0.177656
     5  C   -0.177641
     6  C   -0.177641
     7  H    0.177654
     8  H    0.177647
     9  H    0.177647
    10  H    0.177654
    11  H    0.177647
    12  H    0.177647
 Sum of Mulliken charges =  -0.00000

 Dipole moment (field-independent basis, Debye):
    X=             -0.0000    Y=             -0.0000    Z=             -0.0000  Tot=              0.0000
 Quadrupole moment (field-independent basis, Debye-Ang):
   XX=            -32.7361   YY=            -32.7367   ZZ=            -40.8428
   XY=              0.0000   XZ=             -0.0000   YZ=              0.0000

 Normal termination of Gaussian 16 at Wed Feb 12 15:50:52 2025.
