 Gaussian 09, Revision A.02,
 Gaussian 09:  EM64L-G09RevA.02 11-Jun-2009

 -----------------------------
 #P MP2/6-311++G** Density=MP2
 -----------------------------

 ------
 Boat-5
 ------
 Symbolic Z-matrix:
 Charge =  0 Multiplicity = 1

                         Standard orientation:
 ---------------------------------------------------------------------
 Center     Atomic      Atomic             Coordinates (Angstroms)
 Number     Number       Type             X           Y           Z
 ---------------------------------------------------------------------
      1          6           0        0.001800    1.394552   -0.020293
      2          6           0       -1.207000    0.698398   -0.020293
      3          6           0       -1.207000   -0.695073    0.040536
      4          6           0       -0.001800   -1.394552   -0.020293
      5          6           0        1.207000   -0.698398   -0.020293
      6          6           0        1.207000    0.695073    0.040536
      7          1           0        0.003723    2.478850   -0.034388
      8          1           0       -2.145800    1.240961   -0.034529
      9          1           0       -2.146476   -1.236055    0.069218
     10          1           0       -0.003723   -2.478850   -0.034388
     11          1           0        2.145800   -1.240961   -0.034529
     12          1           0        2.146476    1.236055    0.069218
 ---------------------------------------------------------------------

 SCF Done:  E(RHF) =  -230.755019684     A.U. after   11 cycles
 E2 =    -0.8283693253D+00 EUMP2 =    -0.23158338900960D+03

 The electronic state is 1-A.
 Alpha  occ. eigenvalues --  -11.23912 -11.23858 -11.23853 -11.23735 -11.23730
 Alpha  occ. eigenvalues --  -11.23672  -1.15226  -1.01631  -1.01627  -0.82508
 Alpha  occ. eigenvalues --   -0.82507  -0.71064  -0.64457  -0.62049  -0.58959
 Alpha  occ. eigenvalues --   -0.58931  -0.50304  -0.49618  -0.49492  -0.33684
 Alpha  occ. eigenvalues --   -0.33682
 Alpha virt. eigenvalues --    0.04210   0.04897   0.04906   0.06625   0.06720
 Alpha virt. eigenvalues --    0.09776   0.10832   0.10921   0.12761   0.15250
 Alpha virt. eigenvalues --    0.15271   0.15878   0.16292   0.18109   0.18248

 Mulliken atomic charges:
              1
     1  C   -0.169727
     2  C   -0.169687
     3  C   -0.176733
     4  C   -0.169727
     5  C   -0.169687
     6  C   -0.176733
     7  H    0.173174
     8  H    0.173173
     9  H    0.169800
    10  H    0.173174
    11  H    0.173173
    12  H    0.169800
 Sum of Mulliken atomic charges =   0.00000

 Dipole moment (field-independent basis, Debye):
    X=              0.0000    Y=              0.0000    Z=              0.0003  Tot=              0.0003
 Quadrupole moment (field-independent basis, Debye-Ang):
   XX=            -32.5690   YY=            -32.5581   ZZ=            -40.8135
   XY=             -0.0086   XZ=              0.0000   YZ=              0.0000

 Normal termination of Gaussian 09 at Mon Dec  6 09:52:39 2021.
