 Gaussian 09, Revision A.02,
 Gaussian 09:  EM64L-G09RevA.02 11-Jun-2009

 -----------------------------
 #P MP2/6-311++G** DENSITY=MP2
 -----------------------------

 ----
 X=OH
 ----
 Symbolic Z-matrix:
 Charge =  0 Multiplicity = 1

                         Standard orientation:
 ---------------------------------------------------------------------
 Center     Atomic      Atomic             Coordinates (Angstroms)
 Number     Number       Type             X           Y           Z
 ---------------------------------------------------------------------
      1          6           0       -1.203937    0.231932    0.000000
      2          6           0       -1.187890   -1.162126    0.000000
      3          6           0        0.020269   -1.855253    0.000000
      4          6           0        1.218336   -1.138884    0.000000
      5          6           0        1.215468    0.252074    0.000000
      6          6           0        0.000000    0.938451    0.000000
      7          1           0        0.029635   -2.938553    0.000000
      8          1           0        2.165288   -1.667106    0.000000
      9          1           0        2.138563    0.819051    0.000000
     10          1           0       -2.148683    0.768176    0.000000
     11          1           0       -2.127082   -1.703895    0.000000
     12          8           0        0.051348    2.307369    0.000000
     13          1           0       -0.841975    2.666215    0.000000
 ---------------------------------------------------------------------

 SCF Done:  E(RHF) =  -305.638402374     A.U. after   15 cycles
 E2 =    -0.1027659704D+01 EUMP2 =    -0.30666606207817D+03

 The electronic state is 1-A'.
 Alpha  occ. eigenvalues --  -20.59211 -11.30853 -11.24685 -11.24459 -11.23914
 Alpha  occ. eigenvalues --  -11.23260 -11.23182  -1.40803  -1.15158  -1.02403
 Alpha  occ. eigenvalues --   -1.00913  -0.85029  -0.82682  -0.73760  -0.68844
 Alpha  occ. eigenvalues --   -0.65512  -0.61375  -0.59496  -0.59093  -0.57071
 Alpha  occ. eigenvalues --   -0.52030  -0.49728  -0.48498  -0.34486  -0.31803
 Alpha virt. eigenvalues --    0.03828   0.04589   0.05134   0.06481   0.07053
 Alpha virt. eigenvalues --    0.08935   0.10443   0.11804   0.13267   0.13300
 Alpha virt. eigenvalues --    0.15040   0.15596   0.15690   0.17066   0.17770

 Mulliken atomic charges:
              1
     1  C    0.309168
     2  C   -0.294935
     3  C   -0.221178
     4  C   -0.322800
     5  C    0.202065
     6  C   -0.616843
     7  H    0.174566
     8  H    0.185286
     9  H    0.226006
    10  H    0.160689
    11  H    0.185473
    12  O   -0.241617
    13  H    0.254122
 Sum of Mulliken atomic charges =   0.00000

 Dipole moment (field-independent basis, Debye):
    X=             -1.3855    Y=             -0.1734    Z=              0.0000  Tot=              1.3963
 Quadrupole moment (field-independent basis, Debye-Ang):
   XX=            -36.2286   YY=            -39.0024   ZZ=            -46.1648
   XY=             -4.5304   XZ=              0.0000   YZ=              0.0000

 Normal termination of Gaussian 09 at Fri Dec  3 14:37:53 2021.
