 Gaussian 09, Revision A.02,
 Gaussian 09:  EM64L-G09RevA.02 11-Jun-2009

 -----------------------------
 #P MP2/6-311++G** DENSITY=MP2
 -----------------------------

 -----
 X=NN+
 -----
 Symbolic Z-matrix:
 Charge =  1 Multiplicity = 1

                         Standard orientation:
 ---------------------------------------------------------------------
 Center     Atomic      Atomic             Coordinates (Angstroms)
 Number     Number       Type             X           Y           Z
 ---------------------------------------------------------------------
      1          6           0        1.221019   -1.480463    0.000000
      2          6           0        1.243137   -0.096667    0.000000
      3          6           0        0.000000    0.562626    0.000000
      4          6           0       -1.243049   -0.096888    0.000000
      5          6           0       -1.220685   -1.480660    0.000000
      6          6           0        0.000235   -2.165545    0.000000
      7          7           0       -0.000172    1.941555    0.000000
      8          1           0       -2.170562    0.461738    0.000000
      9          1           0       -2.154272   -2.028914    0.000000
     10          1           0        0.000301   -3.249204    0.000000
     11          1           0        2.154721   -2.028519    0.000000
     12          1           0        2.170572    0.462089    0.000000
     13          7           0       -0.000500    3.048215    0.000000
 ---------------------------------------------------------------------

 SCF Done:  E(RHF) =  -338.813152654     A.U. after   16 cycles
 E2 =    -0.1144685505D+01 EUMP2 =    -0.33995783815935D+03

 The electronic state is 1-A'.
 Alpha  occ. eigenvalues --  -15.99002 -15.96480 -11.51834 -11.46079 -11.46075
 Alpha  occ. eigenvalues --  -11.43983 -11.42505 -11.42499  -1.74772  -1.40366
 Alpha  occ. eigenvalues --   -1.29770  -1.22734  -1.13759  -1.04286  -0.97792
 Alpha  occ. eigenvalues --   -0.92535  -0.91026  -0.90117  -0.88149  -0.81257
 Alpha  occ. eigenvalues --   -0.80386  -0.79526  -0.71355  -0.70326  -0.69619
 Alpha  occ. eigenvalues --   -0.54544  -0.53505
 Alpha virt. eigenvalues --   -0.15492  -0.10647  -0.08248  -0.06633  -0.06100
 Alpha virt. eigenvalues --   -0.05476  -0.03575  -0.03156  -0.02483  -0.01965
 Alpha virt. eigenvalues --   -0.01254   0.00956   0.01494   0.01720   0.02252

 Mulliken atomic charges:
              1
     1  C   -0.376751
     2  C    0.601322
     3  C   -1.372929
     4  C    0.601237
     5  C   -0.376870
     6  C   -0.225937
     7  N    0.731372
     8  H    0.291116
     9  H    0.271936
    10  H    0.259558
    11  H    0.271936
    12  H    0.291112
    13  N    0.032898
 Sum of Mulliken atomic charges =   1.00000

 Dipole moment (field-independent basis, Debye):
    X=              0.0000    Y=              1.3481    Z=              0.0000  Tot=              1.3481
 Quadrupole moment (field-independent basis, Debye-Ang):
   XX=            -32.2361   YY=            -22.4035   ZZ=            -46.3915
   XY=             -0.0011   XZ=              0.0000   YZ=              0.0000

 Normal termination of Gaussian 09 at Fri Dec  3 14:36:41 2021.
