 Gaussian 09, Revision A.02,
 Gaussian 09:  EM64L-G09RevA.02 11-Jun-2009

 -----------------------------
 #P MP2/6-311++G** DENSITY=MP2
 -----------------------------

 --------
 Hepta-NH
 --------
 Symbolic Z-matrix:
 Charge =  0 Multiplicity = 1

                         Standard orientation:
 ---------------------------------------------------------------------
 Center     Atomic      Atomic             Coordinates (Angstroms)
 Number     Number       Type             X           Y           Z
 ---------------------------------------------------------------------
      1          6           0        0.693060   -1.861329    0.000000
      2          6           0        1.571649   -0.720618    0.000000
      3          6           0       -0.663122   -1.870968    0.000000
      4          6           0       -1.552205   -0.739001    0.000000
      5          6           0       -1.279660    0.587909    0.000000
      6          6           0        0.000000    1.310197    0.000000
      7          6           0        1.285199    0.602816    0.000000
      8          1           0       -2.142883    1.250040    0.000000
      9          1           0        2.123236    1.292580    0.000000
     10          1           0        2.629386   -0.968425    0.000000
     11          1           0        1.189120   -2.827162    0.000000
     12          1           0       -1.148829   -2.841707    0.000000
     13          1           0       -2.607779   -0.997335    0.000000
     14          7           0        0.070144    2.602784    0.000000
     15          1           0       -0.862791    3.018479    0.000000
 ---------------------------------------------------------------------

 SCF Done:  E(RHF) =  -323.618027890     A.U. after   18 cycles
 E2 =    -0.1135275222D+01 EUMP2 =    -0.32475330311238D+03

 The electronic state is 1-A'.
 Alpha  occ. eigenvalues --  -15.53818 -11.29838 -11.26808 -11.26280 -11.26069
 Alpha  occ. eigenvalues --  -11.25962 -11.25928 -11.25447  -1.21615  -1.13285
 Alpha  occ. eigenvalues --   -1.06916  -1.02075  -0.90135  -0.87332  -0.75172
 Alpha  occ. eigenvalues --   -0.72865  -0.70684  -0.63785  -0.63114  -0.59109
 Alpha  occ. eigenvalues --   -0.56956  -0.53273  -0.52308  -0.49870  -0.44437
 Alpha  occ. eigenvalues --   -0.42535  -0.40015  -0.29707
 Alpha virt. eigenvalues --    0.03585   0.04351   0.04497   0.05067   0.06314
 Alpha virt. eigenvalues --    0.06942   0.08388   0.08903   0.09839   0.12235
 Alpha virt. eigenvalues --    0.12536   0.14288   0.15046   0.16214   0.16932

 Mulliken atomic charges:
              1
     1  C   -0.305231
     2  C   -0.487981
     3  C   -0.053930
     4  C   -0.417462
     5  C    0.632992
     6  C   -0.658589
     7  C    0.083930
     8  H    0.184508
     9  H    0.257306
    10  H    0.194072
    11  H    0.186952
    12  H    0.188172
    13  H    0.191023
    14  N   -0.197683
    15  H    0.201920
 Sum of Mulliken atomic charges =   0.00000

 Dipole moment (field-independent basis, Debye):
    X=             -1.3730    Y=             -2.9213    Z=              0.0000  Tot=              3.2278
 Quadrupole moment (field-independent basis, Debye-Ang):
   XX=            -41.3858   YY=            -50.9615   ZZ=            -52.4565
   XY=             -4.8277   XZ=              0.0000   YZ=              0.0000

 Normal termination of Gaussian 09 at Wed Dec 22 16:51:13 2021.
