 Gaussian 09, Revision A.02,
 Gaussian 09:  EM64L-G09RevA.02 11-Jun-2009

 -----------------------------
 #P MP2/6-311++G** DENSITY=MP2
 -----------------------------

 -------
 Boat-15
 -------
 Symbolic Z-matrix:
 Charge =  0 Multiplicity = 1

                         Standard orientation:
 ---------------------------------------------------------------------
 Center     Atomic      Atomic             Coordinates (Angstroms)
 Number     Number       Type             X           Y           Z
 ---------------------------------------------------------------------
      1          6           0        0.016570    1.393372   -0.060852
      2          6           0       -1.200528    0.707303   -0.060852
      3          6           0       -1.200528   -0.676700    0.121222
      4          6           0       -0.016570   -1.393372   -0.060852
      5          6           0        1.200528   -0.707303   -0.060852
      6          6           0        1.200528    0.676700    0.121222
      7          1           0        0.034184    2.476605   -0.102692
      8          1           0       -2.136403    1.253041   -0.102996
      9          1           0       -2.142623   -1.207685    0.208583
     10          1           0       -0.034184   -2.476605   -0.102692
     11          1           0        2.136403   -1.253041   -0.102996
     12          1           0        2.142623    1.207685    0.208583
 ---------------------------------------------------------------------

 SCF Done:  E(RHF) =  -230.746408239     A.U. after   13 cycles
 E2 =    -0.8308953437D+00 EUMP2 =    -0.23157730358265D+03

 The electronic state is 1-A.
 Alpha  occ. eigenvalues --  -11.23930 -11.23890 -11.23854 -11.23768 -11.23722
 Alpha  occ. eigenvalues --  -11.23682  -1.15291  -1.01566  -1.01534  -0.82378
 Alpha  occ. eigenvalues --   -0.82370  -0.71058  -0.64556  -0.61794  -0.59034
 Alpha  occ. eigenvalues --   -0.58785  -0.50734  -0.49698  -0.48964  -0.33486
 Alpha  occ. eigenvalues --   -0.33458
 Alpha virt. eigenvalues --    0.04195   0.04903   0.04964   0.06624   0.07023
 Alpha virt. eigenvalues --    0.09135   0.10247   0.10957   0.12179   0.14515
 Alpha virt. eigenvalues --    0.15181   0.16337   0.16359   0.18116   0.18167

 Mulliken atomic charges:
              1
     1  C   -0.170822
     2  C   -0.170667
     3  C   -0.180693
     4  C   -0.170822
     5  C   -0.170667
     6  C   -0.180693
     7  H    0.176725
     8  H    0.176748
     9  H    0.168708
    10  H    0.176725
    11  H    0.176748
    12  H    0.168708
 Sum of Mulliken atomic charges =   0.00000

 Dipole moment (field-independent basis, Debye):
    X=              0.0000    Y=              0.0000    Z=              0.0019  Tot=              0.0019
 Quadrupole moment (field-independent basis, Debye-Ang):
   XX=            -32.7267   YY=            -32.6239   ZZ=            -40.7295
   XY=             -0.0841   XZ=              0.0000   YZ=              0.0000

 Normal termination of Gaussian 09 at Fri Dec  3 11:53:54 2021.
