 Gaussian 09, Revision A.02,
 Gaussian 09:  EM64L-G09RevA.02 11-Jun-2009

 -----------------------------
 #P MP2/6-311++G** DENSITY=MP2
 -----------------------------

 ----------
 Pyramid-25
 ----------
 Symbolic Z-matrix:
 Charge =  0 Multiplicity = 1

                         Standard orientation:
 ---------------------------------------------------------------------
 Center     Atomic      Atomic             Coordinates (Angstroms)
 Number     Number       Type             X           Y           Z
 ---------------------------------------------------------------------
      1          6           0        0.065559   -0.699513    1.211536
      2          6           0        0.065559    0.699512    1.211536
      3          6           0        0.065590    1.399080    0.000000
      4          6           0        0.065559    0.699512   -1.211536
      5          6           0        0.065559   -0.699513   -1.211536
      6          6           0        0.065592   -1.399081    0.000000
      7          1           0       -0.393430   -1.191558    2.064031
      8          1           0       -0.393431    1.191557    2.064031
      9          1           0       -0.393392    2.383369    0.000000
     10          1           0       -0.393431    1.191557   -2.064031
     11          1           0       -0.393430   -1.191558   -2.064031
     12          1           0       -0.393387   -2.383368    0.000000
 ---------------------------------------------------------------------

 SCF Done:  E(RHF) =  -230.708703262     A.U. after   12 cycles
 E2 =    -0.8367839183D+00 EUMP2 =    -0.23154548718023D+03

 The electronic state is 1-A'.
 Alpha  occ. eigenvalues --  -11.24369 -11.24313 -11.24313 -11.24193 -11.24193
 Alpha  occ. eigenvalues --  -11.24134  -1.15493  -1.02020  -1.02018  -0.82624
 Alpha  occ. eigenvalues --   -0.82622  -0.71035  -0.63677  -0.62142  -0.58951
 Alpha  occ. eigenvalues --   -0.58947  -0.50283  -0.49215  -0.49214  -0.33686
 Alpha  occ. eigenvalues --   -0.33684
 Alpha virt. eigenvalues --    0.04215   0.05361   0.05361   0.07145   0.07145
 Alpha virt. eigenvalues --    0.09347   0.09767   0.09768   0.12140   0.14354
 Alpha virt. eigenvalues --    0.14355   0.16376   0.16475   0.18286   0.18287

 Mulliken atomic charges:
              1
     1  C   -0.139035
     2  C   -0.139057
     3  C   -0.139233
     4  C   -0.139057
     5  C   -0.139035
     6  C   -0.139255
     7  H    0.139113
     8  H    0.139111
     9  H    0.139112
    10  H    0.139111
    11  H    0.139113
    12  H    0.139110
 Sum of Mulliken atomic charges =   0.00000

 Dipole moment (field-independent basis, Debye):
    X=             -1.7653    Y=              0.0000    Z=              0.0000  Tot=              1.7653
 Quadrupole moment (field-independent basis, Debye-Ang):
   XX=            -39.6653   YY=            -34.3434   ZZ=            -34.3437
   XY=              0.0000   XZ=              0.0000   YZ=              0.0000

 Normal termination of Gaussian 09 at Fri Dec  3 12:19:46 2021.
