 Gaussian 16, Revision A.03,
 Gaussian 16:  ES64L-G16RevA.03 25-Dec-2016

 ------------------------------------
 #P MP2/6-311++G** nosymm Density=MP2
 ------------------------------------

 --------
 Clamp-20
 --------
 Symbolic Z-matrix:
 Charge =  0 Multiplicity = 1

                          Input orientation:
 ---------------------------------------------------------------------
 Center     Atomic      Atomic             Coordinates (Angstroms)
 Number     Number       Type             X           Y           Z
 ---------------------------------------------------------------------
      1          6           0        1.408200    0.023813    0.000000
      2          6           0        0.724681    1.207555    0.000000
      3          6           0       -0.724681    1.207555    0.000000
      4          6           0       -1.408200    0.023813    0.000000
      5          6           0       -0.683446   -1.231356    0.000000
      6          6           0        0.683446   -1.231356    0.000000
      7          1           0        2.426379   -0.346828    0.000000
      8          1           0        0.912837    2.274634    0.000000
      9          1           0       -0.912837    2.274634    0.000000
     10          1           0       -2.426379   -0.346828    0.000000
     11          1           0       -1.513436   -1.927872    0.000000
     12          1           0        1.513436   -1.927872    0.000000
 ---------------------------------------------------------------------

 SCF Done:  E(RHF) =  -230.660766122     A.U. after   12 cycles
 E2 =    -0.8398905550D+00 EUMP2 =    -0.23150065667684D+03

 Alpha  occ. eigenvalues --  -11.24603 -11.24551 -11.24551 -11.24428 -11.24427
 Alpha  occ. eigenvalues --  -11.24373  -1.15040  -1.02196  -1.02195  -0.83517
 Alpha  occ. eigenvalues --   -0.83517  -0.73681  -0.63335  -0.60448  -0.58916
 Alpha  occ. eigenvalues --   -0.58915  -0.49990  -0.47304  -0.47302  -0.33996
 Alpha  occ. eigenvalues --   -0.33996
 Alpha virt. eigenvalues --    0.04178   0.04889   0.04889   0.06694   0.06694
 Alpha virt. eigenvalues --    0.08904   0.10449   0.10450   0.12886   0.15284
 Alpha virt. eigenvalues --    0.15284   0.15310   0.16122   0.17150   0.17150

 Mulliken charges:
               1
     1  C   -0.171595
     2  C   -0.171517
     3  C   -0.171517
     4  C   -0.171595
     5  C   -0.171597
     6  C   -0.171597
     7  H    0.171573
     8  H    0.171567
     9  H    0.171567
    10  H    0.171573
    11  H    0.171569
    12  H    0.171569
 Sum of Mulliken charges =  -0.00000

 Dipole moment (field-independent basis, Debye):
    X=              0.0000    Y=             -0.0001    Z=              0.0000  Tot=              0.0001
 Quadrupole moment (field-independent basis, Debye-Ang):
   XX=            -33.2782   YY=            -33.2791   ZZ=            -40.9337
   XY=             -0.0000   XZ=             -0.0000   YZ=              0.0000

 Normal termination of Gaussian 16 at Wed Feb 12 15:56:27 2025.
