 Gaussian 09, Revision A.02,
 Gaussian 09:  EM64L-G09RevA.02 11-Jun-2009

 -----------------------------
 #P MP2/6-311++G** DENSITY=MP2
 -----------------------------

 ------
 Phenan
 ------
 Symbolic Z-matrix:
 Charge =  0 Multiplicity = 1

                         Standard orientation:
 ---------------------------------------------------------------------
 Center     Atomic      Atomic             Coordinates (Angstroms)
 Number     Number       Type             X           Y           Z
 ---------------------------------------------------------------------
      1          6           0        1.907313   -3.017175    0.000000
      2          6           0        2.685629   -1.846679    0.000000
      3          6           0        2.080243   -0.605325    0.000000
      4          6           0        0.673458   -0.470416    0.000000
      5          6           0       -0.110005   -1.660320    0.000000
      6          6           0        0.532164   -2.919243    0.000000
      7          6           0       -1.541303   -1.568725    0.000000
      8          6           0       -2.168682   -0.365155    0.000000
      9          6           0       -1.424136    0.860572    0.000000
     10          6           0        0.000000    0.821402    0.000000
     11          6           0        0.694915    2.051932    0.000000
     12          1           0        1.777163    2.061414    0.000000
     13          1           0        2.707622    0.276555    0.000000
     14          6           0        0.023855    3.259080    0.000000
     15          6           0       -1.381438    3.291335    0.000000
     16          6           0       -2.088558    2.107921    0.000000
     17          1           0        2.387079   -3.989357    0.000000
     18          1           0        3.767637   -1.916957    0.000000
     19          1           0       -0.080180   -3.815163    0.000000
     20          1           0       -2.116109   -2.489029    0.000000
     21          1           0       -3.252311   -0.309323    0.000000
     22          1           0        0.585819    4.186369    0.000000
     23          1           0       -1.903732    4.241343    0.000000
     24          1           0       -3.173718    2.118929    0.000000
 ---------------------------------------------------------------------

 SCF Done:  E(RHF) =  -536.119943227     A.U. after   15 cycles
 E2 =    -0.1913404293D+01 EUMP2 =    -0.53803334751993D+03

 The electronic state is 1-A'.
 Alpha  occ. eigenvalues --  -11.25368 -11.25284 -11.24953 -11.24952 -11.24166
 Alpha  occ. eigenvalues --  -11.24128 -11.24128 -11.24096 -11.24096 -11.24017
 Alpha  occ. eigenvalues --  -11.23996 -11.23995 -11.23902 -11.23902  -1.19001
 Alpha  occ. eigenvalues --   -1.14782  -1.09721  -1.05625  -1.03126  -0.99135
 Alpha  occ. eigenvalues --   -0.98329  -0.86420  -0.85724  -0.83614  -0.80113
 Alpha  occ. eigenvalues --   -0.73839  -0.72020  -0.68436  -0.66337  -0.66051
 Alpha  occ. eigenvalues --   -0.61327  -0.60292  -0.59698  -0.59551  -0.57926
 Alpha  occ. eigenvalues --   -0.55729  -0.54775  -0.52134  -0.51696  -0.49353
 Alpha  occ. eigenvalues --   -0.48487  -0.47284  -0.43113  -0.38366  -0.35180
 Alpha  occ. eigenvalues --   -0.29728  -0.28539
 Alpha virt. eigenvalues --    0.03768   0.04343   0.04351   0.05534   0.05562
 Alpha virt. eigenvalues --    0.07222   0.07426   0.07512   0.07565   0.09478
 Alpha virt. eigenvalues --    0.10058   0.10351   0.12083   0.12154   0.12578

 Mulliken atomic charges:
              1
     1  C   -0.430374
     2  C   -0.433632
     3  C   -1.008640
     4  C    0.284225
     5  C    1.316450
     6  C   -0.348350
     7  C   -0.152081
     8  C   -0.151958
     9  C    1.316636
    10  C    0.284237
    11  C   -1.008588
    12  H    0.086958
    13  H    0.086921
    14  C   -0.433778
    15  C   -0.430322
    16  C   -0.348311
    17  H    0.181865
    18  H    0.204879
    19  H    0.142347
    20  H    0.156225
    21  H    0.156213
    22  H    0.204866
    23  H    0.181862
    24  H    0.142351
 Sum of Mulliken atomic charges =   0.00000

 Dipole moment (field-independent basis, Debye):
    X=              0.0287    Y=              0.0150    Z=              0.0000  Tot=              0.0324
 Quadrupole moment (field-independent basis, Debye-Ang):
   XX=            -72.7980   YY=            -72.4929   ZZ=            -90.3012
   XY=             -0.2201   XZ=              0.0000   YZ=              0.0000

 Normal termination of Gaussian 09 at Fri Dec  3 12:47:05 2021.
