 Gaussian 09, Revision A.02,
 Gaussian 09:  EM64L-G09RevA.02 11-Jun-2009

 -----------------------------
 #P MP2/6-311++G** Density=MP2
 -----------------------------

 --------
 Bla-0.25
 --------
 Symbolic Z-matrix:
 Charge =  0 Multiplicity = 1

                         Standard orientation:
 ---------------------------------------------------------------------
 Center     Atomic      Atomic             Coordinates (Angstroms)
 Number     Number       Type             X           Y           Z
 ---------------------------------------------------------------------
      1          6           0        0.634832    1.243898    0.000000
      2          6           0        1.394663   -0.072168    0.000000
      3          6           0        0.759831   -1.171730    0.000000
      4          6           0       -0.759831   -1.171730    0.000000
      5          6           0       -1.394663   -0.072168    0.000000
      6          6           0       -0.634832    1.243898    0.000000
      7          1           0        1.177044    2.183038    0.000000
      8          1           0        2.479088   -0.072169    0.000000
      9          1           0        1.302044   -2.110869    0.000000
     10          1           0       -1.302044   -2.110869    0.000000
     11          1           0       -2.479088   -0.072169    0.000000
     12          1           0       -1.177044    2.183038    0.000000
 ---------------------------------------------------------------------

 SCF Done:  E(RHF) =  -230.711990292     A.U. after   11 cycles
 E2 =    -0.8145276490D+00 EUMP2 =    -0.23152651794066D+03

 The electronic state is 1-A1'.
 Alpha  occ. eigenvalues --  -11.23028 -11.22985 -11.22985 -11.22768 -11.22768
 Alpha  occ. eigenvalues --  -11.22721  -1.15489  -1.03038  -1.03038  -0.80911
 Alpha  occ. eigenvalues --   -0.80911  -0.71025  -0.63923  -0.61663  -0.59871
 Alpha  occ. eigenvalues --   -0.59871  -0.50394  -0.47648  -0.47648  -0.35558
 Alpha  occ. eigenvalues --   -0.35558
 Alpha virt. eigenvalues --    0.04246   0.04911   0.04911   0.06647   0.06647
 Alpha virt. eigenvalues --    0.09730   0.11853   0.11853   0.12830   0.15459
 Alpha virt. eigenvalues --    0.15459   0.15843   0.16297   0.18111   0.18111

 Mulliken atomic charges:
              1
     1  C   -0.171964
     2  C   -0.171964
     3  C   -0.171964
     4  C   -0.171964
     5  C   -0.171964
     6  C   -0.171964
     7  H    0.171964
     8  H    0.171964
     9  H    0.171964
    10  H    0.171964
    11  H    0.171964
    12  H    0.171964
 Sum of Mulliken atomic charges =   0.00000

 Dipole moment (field-independent basis, Debye):
    X=              0.0000    Y=              0.0000    Z=              0.0000  Tot=              0.0000
 Quadrupole moment (field-independent basis, Debye-Ang):
   XX=            -32.4572   YY=            -32.4572   ZZ=            -40.4261
   XY=              0.0000   XZ=              0.0000   YZ=              0.0000

 Normal termination of Gaussian 09 at Thu Dec  2 19:09:09 2021.
