 Gaussian 09, Revision A.02,
 Gaussian 09:  EM64L-G09RevA.02 11-Jun-2009

 -----------------------------
 #P MP2/6-311++G** DENSITY=MP2
 -----------------------------

 -----
 X=NO2
 -----
 Symbolic Z-matrix:
 Charge =  0 Multiplicity = 1

                         Standard orientation:
 ---------------------------------------------------------------------
 Center     Atomic      Atomic             Coordinates (Angstroms)
 Number     Number       Type             X           Y           Z
 ---------------------------------------------------------------------
      1          6           0       -0.429918    1.218633    0.000000
      2          6           0        0.241737    0.000003    0.000000
      3          6           0       -0.429918   -1.218629    0.000000
      4          6           0       -1.821248   -1.210116    0.000000
      5          6           0       -2.515605    0.000000    0.000000
      6          6           0       -1.821248    1.210115    0.000000
      7          7           0        1.722363    0.000000    0.000000
      8          8           0        2.290932   -1.084330    0.000000
      9          8           0        2.290937    1.084324    0.000000
     10          1           0        0.135010   -2.140423    0.000000
     11          1           0       -2.362415   -2.148633    0.000000
     12          1           0       -3.599475    0.000003    0.000000
     13          1           0       -2.362419    2.148630    0.000000
     14          1           0        0.135002    2.140433    0.000000
 ---------------------------------------------------------------------

 SCF Done:  E(RHF) =  -434.278996896     A.U. after   15 cycles
 E2 =    -0.1411385985D+01 EUMP2 =    -0.43569038288156D+03

 The electronic state is 1-A'.
 Alpha  occ. eigenvalues --  -20.60613 -20.60608 -15.85858 -11.31844 -11.28117
 Alpha  occ. eigenvalues --  -11.28113 -11.27801 -11.27065 -11.27054  -1.61317
 Alpha  occ. eigenvalues --   -1.40555  -1.20445  -1.09691  -1.05748  -0.96476
 Alpha  occ. eigenvalues --   -0.86995  -0.83371  -0.78561  -0.73092  -0.72252
 Alpha  occ. eigenvalues --   -0.71290  -0.66107  -0.65491  -0.62951  -0.55989
 Alpha  occ. eigenvalues --   -0.53995  -0.53555  -0.49822  -0.49684  -0.45542
 Alpha  occ. eigenvalues --   -0.38103  -0.37216
 Alpha virt. eigenvalues --    0.03047   0.03217   0.04203   0.05062   0.06925
 Alpha virt. eigenvalues --    0.07269   0.08511   0.11023   0.11237   0.12718
 Alpha virt. eigenvalues --    0.13944   0.14609   0.14813   0.15243   0.16487

 Mulliken atomic charges:
              1
     1  C    0.643927
     2  C   -1.059704
     3  C    0.643915
     4  C   -0.610433
     5  C   -0.044946
     6  C   -0.610423
     7  N   -0.166134
     8  O    0.014734
     9  O    0.014735
    10  H    0.283221
    11  H    0.208037
    12  H    0.191815
    13  H    0.208036
    14  H    0.283220
 Sum of Mulliken atomic charges =   0.00000

 Dipole moment (field-independent basis, Debye):
    X=             -4.3896    Y=              0.0000    Z=              0.0000  Tot=              4.3896
 Quadrupole moment (field-independent basis, Debye-Ang):
   XX=            -56.1852   YY=            -48.6161   ZZ=            -54.1821
   XY=              0.0000   XZ=              0.0000   YZ=              0.0000

 Normal termination of Gaussian 09 at Fri Dec  3 14:39:14 2021.
