 Gaussian 16, Revision A.03,
 Gaussian 16:  ES64L-G16RevA.03 25-Dec-2016

 ------------------------------------
 #P MP2/6-311++G** nosymm Density=MP2
 ------------------------------------

 -------
 Penta-O
 -------
 Symbolic Z-matrix:
 Charge =  0 Multiplicity = 1

                          Input orientation:
 ---------------------------------------------------------------------
 Center     Atomic      Atomic             Coordinates (Angstroms)
 Number     Number       Type             X           Y           Z
 ---------------------------------------------------------------------
      1          6           0        0.000000    0.823052    0.000000
      2          6           0        1.204646   -0.088504    0.000000
      3          1           0        2.223506    0.268126    0.000000
      4          6           0        0.751566   -1.346802    0.000000
      5          1           0        1.346186   -2.250654    0.000000
      6          6           0       -1.204646   -0.088504    0.000000
      7          1           0       -2.223506    0.268126    0.000000
      8          6           0       -0.751566   -1.346802    0.000000
      9          1           0       -1.346186   -2.250654    0.000000
     10          8           0        0.000000    2.031302    0.000000
 ---------------------------------------------------------------------

 SCF Done:  E(RHF) =  -266.547828559     A.U. after   13 cycles
 E2 =    -0.8689377955D+00 EUMP2 =    -0.26741676635431D+03

 Alpha  occ. eigenvalues --  -20.56866 -11.34621 -11.27506 -11.27438 -11.25180
 Alpha  occ. eigenvalues --  -11.25177  -1.40449  -1.17295  -1.00779  -0.91604
 Alpha  occ. eigenvalues --   -0.77628  -0.75168  -0.70944  -0.61461  -0.60998
 Alpha  occ. eigenvalues --   -0.60192  -0.56810  -0.54875  -0.45200  -0.42745
 Alpha  occ. eigenvalues --   -0.34720
 Alpha virt. eigenvalues --    0.02825   0.03440   0.04595   0.05409   0.06794
 Alpha virt. eigenvalues --    0.10720   0.11592   0.14076   0.14511   0.14787
 Alpha virt. eigenvalues --    0.15100   0.15157   0.15444   0.17139   0.17821

 Mulliken charges:
               1
     1  C   -0.473150
     2  C    0.194689
     3  H    0.229127
     4  C   -0.293292
     5  H    0.205270
     6  C    0.194689
     7  H    0.229127
     8  C   -0.293292
     9  H    0.205270
    10  O   -0.198437
 Sum of Mulliken charges =  -0.00000

 Dipole moment (field-independent basis, Debye):
    X=             -0.0000    Y=             -3.0510    Z=             -0.0000  Tot=              3.0510
 Quadrupole moment (field-independent basis, Debye-Ang):
   XX=            -31.2893   YY=            -37.6366   ZZ=            -36.9359
   XY=              0.0000   XZ=             -0.0000   YZ=             -0.0000

 Normal termination of Gaussian 16 at Thu Feb 13 10:03:52 2025.
