 Gaussian 09, Revision A.02,
 Gaussian 09:  EM64L-G09RevA.02 11-Jun-2009

 -----------------------------
 #P MP2/6-311++G** DENSITY=MP2
 -----------------------------

 ---
 CH2
 ---
 Symbolic Z-matrix:
 Charge =  0 Multiplicity = 1

                         Standard orientation:
 ---------------------------------------------------------------------
 Center     Atomic      Atomic             Coordinates (Angstroms)
 Number     Number       Type             X           Y           Z
 ---------------------------------------------------------------------
      1          6           0        0.000000    0.734115   -0.990161
      2          6           0        0.000000   -0.734115   -0.990161
      3          6           0        0.000000   -1.179318    0.281653
      4          6           0        0.000000    0.000000    1.216052
      5          6           0        0.000000    1.179318    0.281653
      6          1           0        0.000000    1.347888   -1.881848
      7          1           0        0.000000   -1.347888   -1.881848
      8          1           0        0.000000   -2.210462    0.607439
      9          1           0       -0.877146    0.000000    1.877297
     10          1           0        0.877146    0.000000    1.877297
     11          1           0        0.000000    2.210462    0.607439
 ---------------------------------------------------------------------

 SCF Done:  E(RHF) =  -192.838623959     A.U. after   12 cycles
 E2 =    -0.7025599662D+00 EUMP2 =    -0.19354118392499D+03

 The electronic state is 1-A1.
 Alpha  occ. eigenvalues --  -11.23265 -11.23003 -11.22949 -11.22802 -11.22784
 Alpha  occ. eigenvalues --   -1.15188  -0.96545  -0.95558  -0.75613  -0.72748
 Alpha  occ. eigenvalues --   -0.69651  -0.59203  -0.56256  -0.52913  -0.50845
 Alpha  occ. eigenvalues --   -0.50310  -0.41289  -0.30789
 Alpha virt. eigenvalues --    0.04211   0.05064   0.05257   0.07062   0.07158
 Alpha virt. eigenvalues --    0.07722   0.10326   0.13215   0.14521   0.14885
 Alpha virt. eigenvalues --    0.15118   0.16007   0.16255   0.18520   0.19014

 Mulliken atomic charges:
              1
     1  C   -0.233210
     2  C   -0.233210
     3  C    0.099305
     4  C   -0.793026
     5  C    0.099305
     6  H    0.179060
     7  H    0.179060
     8  H    0.190172
     9  H    0.161187
    10  H    0.161187
    11  H    0.190172
 Sum of Mulliken atomic charges =   0.00000

 Dipole moment (field-independent basis, Debye):
    X=              0.0000    Y=              0.0000    Z=              0.4406  Tot=              0.4406
 Quadrupole moment (field-independent basis, Debye-Ang):
   XX=            -33.8600   YY=            -29.5122   ZZ=            -27.8378
   XY=              0.0000   XZ=              0.0000   YZ=              0.0000

 Normal termination of Gaussian 09 at Fri Dec  3 17:11:32 2021.
