 Gaussian 09, Revision A.02,
 Gaussian 09:  EM64L-G09RevA.02 11-Jun-2009

 -----------------------------
 #P MP2/6-311++G** Density=MP2
 -----------------------------

 ---
 CH-
 ---
 Symbolic Z-matrix:
 Charge = -1 Multiplicity = 1

                         Standard orientation:
 ---------------------------------------------------------------------
 Center     Atomic      Atomic             Coordinates (Angstroms)
 Number     Number       Type             X           Y           Z
 ---------------------------------------------------------------------
      1          6           0        0.000000    1.144849    0.372001
      2          1           0        0.000000    2.177331    0.707445
      3          6           0        0.000000    0.707543   -0.973909
      4          1           0        0.000000    1.345710   -1.852134
      5          6           0        0.000000   -1.144849    0.372001
      6          1           0        0.000000   -2.177331    0.707445
      7          6           0        0.000000   -0.707543   -0.973909
      8          1           0        0.000000   -1.345710   -1.852134
      9          6           0        0.000000    0.000000    1.203812
     10          1           0        0.000000    0.000000    2.289401
 ---------------------------------------------------------------------

 SCF Done:  E(RHF) =  -192.248109032     A.U. after   11 cycles
 E2 =    -0.7230543796D+00 EUMP2 =    -0.19297116341120D+03

 The electronic state is 1-A1.
 Alpha  occ. eigenvalues --  -11.00587 -11.00517 -11.00517 -11.00394 -11.00394
 Alpha  occ. eigenvalues --   -0.92828  -0.72820  -0.72818  -0.51938  -0.51938
 Alpha  occ. eigenvalues --   -0.48497  -0.32829  -0.32825  -0.30431  -0.30430
 Alpha  occ. eigenvalues --   -0.28048  -0.07120  -0.07117
 Alpha virt. eigenvalues --    0.15645   0.15645   0.15806   0.17105   0.17105
 Alpha virt. eigenvalues --    0.28277   0.28282   0.28282   0.30066   0.30066
 Alpha virt. eigenvalues --    0.30329   0.30329   0.31697   0.31697   0.33155

 Mulliken atomic charges:
              1
     1  C   -0.269764
     2  H    0.069810
     3  C   -0.269828
     4  H    0.069812
     5  C   -0.269764
     6  H    0.069810
     7  C   -0.269828
     8  H    0.069812
     9  C   -0.269867
    10  H    0.069810
 Sum of Mulliken atomic charges =  -1.00000

 Dipole moment (field-independent basis, Debye):
    X=              0.0000    Y=              0.0000    Z=              0.0000  Tot=              0.0000
 Quadrupole moment (field-independent basis, Debye-Ang):
   XX=            -41.9965   YY=            -39.0922   ZZ=            -39.0916
   XY=              0.0000   XZ=              0.0000   YZ=              0.0000

 Normal termination of Gaussian 09 at Fri Dec  3 17:10:05 2021.
