 Gaussian 09, Revision A.02,
 Gaussian 09:  EM64L-G09RevA.02 11-Jun-2009

 -----------------------------
 #P MP2/6-311++G** DENSITY=MP2
 -----------------------------

 --------
 Bla-0.15
 --------
 Symbolic Z-matrix:
 Charge =  0 Multiplicity = 1

                         Standard orientation:
 ---------------------------------------------------------------------
 Center     Atomic      Atomic             Coordinates (Angstroms)
 Number     Number       Type             X           Y           Z
 ---------------------------------------------------------------------
      1          6           0        0.659832    1.229464    0.000000
      2          6           0        1.394663   -0.043301    0.000000
      3          6           0        0.734831   -1.186163    0.000000
      4          6           0       -0.734831   -1.186163    0.000000
      5          6           0       -1.394663   -0.043301    0.000000
      6          6           0       -0.659832    1.229464    0.000000
      7          1           0        1.202044    2.168604    0.000000
      8          1           0        2.479088   -0.043301    0.000000
      9          1           0        1.277044   -2.125303    0.000000
     10          1           0       -1.277044   -2.125303    0.000000
     11          1           0       -2.479088   -0.043301    0.000000
     12          1           0       -1.202044    2.168604    0.000000
 ---------------------------------------------------------------------

 SCF Done:  E(RHF) =  -230.741881590     A.U. after   12 cycles
 E2 =    -0.8219450792D+00 EUMP2 =    -0.23156382666967D+03

 The electronic state is 1-A1'.
 Alpha  occ. eigenvalues --  -11.23554 -11.23504 -11.23504 -11.23345 -11.23345
 Alpha  occ. eigenvalues --  -11.23291  -1.15294  -1.02144  -1.02144  -0.81903
 Alpha  occ. eigenvalues --   -0.81903  -0.71029  -0.64241  -0.61910  -0.59303
 Alpha  occ. eigenvalues --   -0.59303  -0.50245  -0.48840  -0.48840  -0.34443
 Alpha  occ. eigenvalues --   -0.34443
 Alpha virt. eigenvalues --    0.04225   0.04903   0.04903   0.06634   0.06634
 Alpha virt. eigenvalues --    0.08815   0.11329   0.11329   0.12894   0.15336
 Alpha virt. eigenvalues --    0.15336   0.15815   0.16291   0.18108   0.18108

 Mulliken atomic charges:
              1
     1  C   -0.177468
     2  C   -0.177468
     3  C   -0.177468
     4  C   -0.177468
     5  C   -0.177468
     6  C   -0.177468
     7  H    0.177468
     8  H    0.177468
     9  H    0.177468
    10  H    0.177468
    11  H    0.177468
    12  H    0.177468
 Sum of Mulliken atomic charges =   0.00000

 Dipole moment (field-independent basis, Debye):
    X=              0.0000    Y=              0.0000    Z=              0.0000  Tot=              0.0000
 Quadrupole moment (field-independent basis, Debye-Ang):
   XX=            -32.5168   YY=            -32.5168   ZZ=            -40.6753
   XY=              0.0000   XZ=              0.0000   YZ=              0.0000

 Normal termination of Gaussian 09 at Fri Dec  3 11:06:23 2021.
