 Gaussian 09, Revision A.02,
 Gaussian 09:  EM64L-G09RevA.02 11-Jun-2009

 -----------------------------
 #P MP2/6-311++G** DENSITY=MP2
 -----------------------------

 -------
 Hepta-O
 -------
 Symbolic Z-matrix:
 Charge =  0 Multiplicity = 1

                         Standard orientation:
 ---------------------------------------------------------------------
 Center     Atomic      Atomic             Coordinates (Angstroms)
 Number     Number       Type             X           Y           Z
 ---------------------------------------------------------------------
      1          6           0        0.680562   -1.846819    0.000000
      2          6           0        1.562598   -0.718338    0.000000
      3          6           0       -0.680532   -1.846844    0.000000
      4          6           0       -1.562607   -0.718398    0.000000
      5          6           0       -1.284295    0.611249    0.000000
      6          6           0        0.000000    1.327143    0.000000
      7          6           0        1.284302    0.611299    0.000000
      8          1           0       -2.125603    1.297971    0.000000
      9          1           0        2.125631    1.297991    0.000000
     10          1           0        2.618869   -0.974154    0.000000
     11          1           0        1.168313   -2.816619    0.000000
     12          1           0       -1.168249   -2.816668    0.000000
     13          1           0       -2.618873   -0.974232    0.000000
     14          8           0       -0.000031    2.558744    0.000000
 ---------------------------------------------------------------------

 SCF Done:  E(RHF) =  -343.471088548     A.U. after   16 cycles
 E2 =    -0.1151179576D+01 EUMP2 =    -0.34462226812320D+03

 The electronic state is 1-A'.
 Alpha  occ. eigenvalues --  -20.52831 -11.33613 -11.27797 -11.27797 -11.27417
 Alpha  occ. eigenvalues --  -11.27272 -11.26222 -11.26220  -1.37022  -1.15332
 Alpha  occ. eigenvalues --   -1.07947  -1.04298  -0.91256  -0.88964  -0.75829
 Alpha  occ. eigenvalues --   -0.73705  -0.71487  -0.64354  -0.62697  -0.59390
 Alpha  occ. eigenvalues --   -0.59365  -0.55291  -0.54354  -0.51470  -0.47955
 Alpha  occ. eigenvalues --   -0.42325  -0.40698  -0.32398
 Alpha virt. eigenvalues --    0.03222   0.03424   0.04154   0.05133   0.06415
 Alpha virt. eigenvalues --    0.06940   0.07288   0.08843   0.11668   0.12829
 Alpha virt. eigenvalues --    0.13583   0.13948   0.14563   0.16805   0.16955

 Mulliken atomic charges:
              1
     1  C   -0.201214
     2  C   -0.442836
     3  C   -0.201151
     4  C   -0.442930
     5  C    0.427021
     6  C   -0.567132
     7  C    0.427029
     8  H    0.235468
     9  H    0.235471
    10  H    0.201297
    11  H    0.193414
    12  H    0.193411
    13  H    0.201304
    14  O   -0.259153
 Sum of Mulliken atomic charges =   0.00000

 Dipole moment (field-independent basis, Debye):
    X=              0.0001    Y=             -4.4699    Z=              0.0000  Tot=              4.4699
 Quadrupole moment (field-independent basis, Debye-Ang):
   XX=            -39.7818   YY=            -53.8723   ZZ=            -50.3584
   XY=              0.0003   XZ=              0.0000   YZ=              0.0000

 Normal termination of Gaussian 09 at Fri Dec  3 17:32:08 2021.
