 Gaussian 09, Revision A.02,
 Gaussian 09:  EM64L-G09RevA.02 11-Jun-2009

 -----------------------------
 #P MP2/6-311++G** DENSITY=MP2
 -----------------------------

 ---
 X=H
 ---
 Symbolic Z-matrix:
 Charge =  0 Multiplicity = 1

                         Standard orientation:
 ---------------------------------------------------------------------
 Center     Atomic      Atomic             Coordinates (Angstroms)
 Number     Number       Type             X           Y           Z
 ---------------------------------------------------------------------
      1          6           0        0.000000    1.394663    0.000000
      2          6           0       -1.207814    0.697332    0.000000
      3          6           0       -1.207814   -0.697331    0.000000
      4          6           0        0.000000   -1.394663    0.000000
      5          6           0        1.207814   -0.697332    0.000000
      6          6           0        1.207814    0.697331    0.000000
      7          1           0        0.000000    2.479089    0.000000
      8          1           0       -2.146954    1.239545    0.000000
      9          1           0       -2.146954   -1.239544    0.000000
     10          1           0        0.000000   -2.479089    0.000000
     11          1           0        2.146954   -1.239545    0.000000
     12          1           0        2.146954    1.239544    0.000000
 ---------------------------------------------------------------------

 SCF Done:  E(RHF) =  -230.756079567     A.U. after   10 cycles
 E2 =    -0.8279448424D+00 EUMP2 =    -0.23158402440958D+03

 The electronic state is 1-A1G.
 Alpha  occ. eigenvalues --  -11.23911 -11.23854 -11.23854 -11.23731 -11.23731
 Alpha  occ. eigenvalues --  -11.23670  -1.15218  -1.01639  -1.01639  -0.82524
 Alpha  occ. eigenvalues --   -0.82524  -0.71064  -0.64444  -0.62081  -0.58948
 Alpha  occ. eigenvalues --   -0.58948  -0.50201  -0.49607  -0.49607  -0.33709
 Alpha  occ. eigenvalues --   -0.33709
 Alpha virt. eigenvalues --    0.04211   0.04896   0.04896   0.06625   0.06625
 Alpha virt. eigenvalues --    0.09787   0.10916   0.10916   0.12935   0.15260
 Alpha virt. eigenvalues --    0.15260   0.15802   0.16283   0.18107   0.18107

 Mulliken atomic charges:
              1
     1  C   -0.180109
     2  C   -0.170053
     3  C   -0.170053
     4  C   -0.180109
     5  C   -0.170053
     6  C   -0.170053
     7  H    0.172583
     8  H    0.173816
     9  H    0.173816
    10  H    0.172583
    11  H    0.173816
    12  H    0.173816
 Sum of Mulliken atomic charges =   0.00000

 Dipole moment (field-independent basis, Debye):
    X=              0.0000    Y=              0.0000    Z=              0.0000  Tot=              0.0000
 Quadrupole moment (field-independent basis, Debye-Ang):
   XX=            -32.5507   YY=            -32.5503   ZZ=            -40.8158
   XY=              0.0000   XZ=              0.0000   YZ=              0.0000

 Normal termination of Gaussian 09 at Fri Dec  3 14:19:53 2021.
