 Gaussian 09, Revision A.02,
 Gaussian 09:  EM64L-G09RevA.02 11-Jun-2009

 -----------------------------
 #P MP2/6-311++G** DENSITY=MP2
 -----------------------------

 --------
 Penta-NH
 --------
 Symbolic Z-matrix:
 Charge =  0 Multiplicity = 1

                         Standard orientation:
 ---------------------------------------------------------------------
 Center     Atomic      Atomic             Coordinates (Angstroms)
 Number     Number       Type             X           Y           Z
 ---------------------------------------------------------------------
      1          6           0        0.000000    0.793915    0.000000
      2          6           0       -1.181577   -0.117759    0.000000
      3          1           0       -2.210238    0.214166    0.000000
      4          6           0       -0.718416   -1.379562    0.000000
      5          1           0       -1.312983   -2.283572    0.000000
      6          6           0        1.198611   -0.088275    0.000000
      7          1           0        2.211627    0.284532    0.000000
      8          6           0        0.770496   -1.361757    0.000000
      9          1           0        1.385413   -2.251489    0.000000
     10          7           0        0.056508    2.069109    0.000000
     11          1           0       -0.884059    2.473230    0.000000
 ---------------------------------------------------------------------

 SCF Done:  E(RHF) =  -246.702364406     A.U. after   15 cycles
 E2 =    -0.8552499789D+00 EUMP2 =    -0.24755761438523D+03

 The electronic state is 1-A'.
 Alpha  occ. eigenvalues --  -15.57047 -11.29608 -11.26118 -11.25446 -11.24503
 Alpha  occ. eigenvalues --  -11.24110  -1.23421  -1.14262  -0.99273  -0.90064
 Alpha  occ. eigenvalues --   -0.76994  -0.74161  -0.70994  -0.61381  -0.58803
 Alpha  occ. eigenvalues --   -0.55969  -0.53738  -0.52875  -0.43067  -0.39989
 Alpha  occ. eigenvalues --   -0.33151
 Alpha virt. eigenvalues --    0.03738   0.04286   0.04609   0.05227   0.06924
 Alpha virt. eigenvalues --    0.07972   0.12135   0.12256   0.14420   0.14636
 Alpha virt. eigenvalues --    0.15203   0.15224   0.15602   0.17407   0.17688

 Mulliken atomic charges:
              1
     1  C   -0.587414
     2  C    0.339331
     3  H    0.200209
     4  C   -0.450895
     5  H    0.194431
     6  C   -0.030125
     7  H    0.230958
     8  C   -0.149288
     9  H    0.196460
    10  N   -0.151559
    11  H    0.207893
 Sum of Mulliken atomic charges =   0.00000

 Dipole moment (field-independent basis, Debye):
    X=             -1.4186    Y=             -1.6405    Z=              0.0000  Tot=              2.1688
 Quadrupole moment (field-independent basis, Debye-Ang):
   XX=            -32.2812   YY=            -35.6730   ZZ=            -39.0254
   XY=             -4.1943   XZ=              0.0000   YZ=              0.0000

 Normal termination of Gaussian 09 at Fri Dec  3 17:34:01 2021.
