 Gaussian 09, Revision A.02,
 Gaussian 09:  EM64L-G09RevA.02 11-Jun-2009

 -----------------------------
 #P MP2/6-311++G** DENSITY=MP2
 -----------------------------

 -------
 Chair-5
 -------
 Symbolic Z-matrix:
 Charge =  0 Multiplicity = 1

                         Standard orientation:
 ---------------------------------------------------------------------
 Center     Atomic      Atomic             Coordinates (Angstroms)
 Number     Number       Type             X           Y           Z
 ---------------------------------------------------------------------
      1          6           0        0.020274    1.393465    0.000000
      2          6           0       -0.020274    0.697214    1.208028
      3          6           0        0.020274   -0.697214    1.208028
      4          6           0       -0.020274   -1.393465    0.000000
      5          6           0        0.020274   -0.697214   -1.208028
      6          6           0       -0.020274    0.697214   -1.208028
      7          1           0        0.016061    2.477991    0.000000
      8          1           0       -0.015909    1.239998    2.146876
      9          1           0        0.015909   -1.239998    2.146876
     10          1           0       -0.016061   -2.477991    0.000000
     11          1           0        0.015909   -1.239998   -2.146876
     12          1           0       -0.015909    1.239998   -2.146876
 ---------------------------------------------------------------------

 SCF Done:  E(RHF) =  -230.754744534     A.U. after   11 cycles
 E2 =    -0.8292526968D+00 EUMP2 =    -0.23158399723031D+03

 The electronic state is 1-AG.
 Alpha  occ. eigenvalues --  -11.23920 -11.23865 -11.23861 -11.23742 -11.23738
 Alpha  occ. eigenvalues --  -11.23680  -1.15223  -1.01641  -1.01628  -0.82520
 Alpha  occ. eigenvalues --   -0.82502  -0.71060  -0.64447  -0.62038  -0.58958
 Alpha  occ. eigenvalues --   -0.58923  -0.50199  -0.49622  -0.49584  -0.33694
 Alpha  occ. eigenvalues --   -0.33687
 Alpha virt. eigenvalues --    0.04211   0.04897   0.04898   0.06631   0.06632
 Alpha virt. eigenvalues --    0.09356   0.10885   0.10897   0.11944   0.15237
 Alpha virt. eigenvalues --    0.15239   0.15486   0.16285   0.18122   0.18126

 Mulliken atomic charges:
              1
     1  C   -0.174731
     2  C   -0.175783
     3  C   -0.175783
     4  C   -0.174731
     5  C   -0.175783
     6  C   -0.175783
     7  H    0.175323
     8  H    0.175487
     9  H    0.175487
    10  H    0.175323
    11  H    0.175487
    12  H    0.175487
 Sum of Mulliken atomic charges =   0.00000

 Dipole moment (field-independent basis, Debye):
    X=              0.0000    Y=              0.0000    Z=              0.0000  Tot=              0.0000
 Quadrupole moment (field-independent basis, Debye-Ang):
   XX=            -40.8395   YY=            -32.5841   ZZ=            -32.5677
   XY=              0.0005   XZ=              0.0000   YZ=              0.0000

 Normal termination of Gaussian 09 at Fri Dec  3 12:08:27 2021.
