 Gaussian 16, Revision A.03,
 Gaussian 16:  ES64L-G16RevA.03 25-Dec-2016

 ------------------------------------
 #P MP2/6-311++G** nosymm Density=MP2
 ------------------------------------

 -------
 Chair-5
 -------
 Symbolic Z-matrix:
 Charge =  0 Multiplicity = 1

                          Input orientation:
 ---------------------------------------------------------------------
 Center     Atomic      Atomic             Coordinates (Angstroms)
 Number     Number       Type             X           Y           Z
 ---------------------------------------------------------------------
      1          6           0        1.393466    0.000000    0.020274
      2          6           0        0.697214    1.208028   -0.020274
      3          6           0       -0.697214    1.208028    0.020274
      4          6           0       -1.393466    0.000000   -0.020274
      5          6           0       -0.697214   -1.208028    0.020274
      6          6           0        0.697214   -1.208028   -0.020274
      7          1           0        2.477991    0.000000    0.016061
      8          1           0        1.239999    2.146876   -0.015909
      9          1           0       -1.239999    2.146876    0.015909
     10          1           0       -2.477991    0.000000   -0.016061
     11          1           0       -1.239999   -2.146876    0.015909
     12          1           0        1.239999   -2.146876   -0.015909
 ---------------------------------------------------------------------

 SCF Done:  E(RHF) =  -230.754744518     A.U. after   12 cycles
 E2 =    -0.8292527200D+00 EUMP2 =    -0.23158399723804D+03

 Alpha  occ. eigenvalues --  -11.23920 -11.23865 -11.23861 -11.23742 -11.23738
 Alpha  occ. eigenvalues --  -11.23680  -1.15223  -1.01641  -1.01628  -0.82520
 Alpha  occ. eigenvalues --   -0.82502  -0.71060  -0.64447  -0.62038  -0.58958
 Alpha  occ. eigenvalues --   -0.58923  -0.50199  -0.49622  -0.49584  -0.33694
 Alpha  occ. eigenvalues --   -0.33687
 Alpha virt. eigenvalues --    0.04211   0.04897   0.04898   0.06631   0.06632
 Alpha virt. eigenvalues --    0.09356   0.10885   0.10897   0.11944   0.15237
 Alpha virt. eigenvalues --    0.15239   0.15486   0.16285   0.18122   0.18126

 Mulliken charges:
               1
     1  C   -0.174731
     2  C   -0.175783
     3  C   -0.175783
     4  C   -0.174731
     5  C   -0.175783
     6  C   -0.175783
     7  H    0.175323
     8  H    0.175487
     9  H    0.175487
    10  H    0.175323
    11  H    0.175487
    12  H    0.175487
 Sum of Mulliken charges =  -0.00000

 Dipole moment (field-independent basis, Debye):
    X=              0.0000    Y=             -0.0000    Z=              0.0000  Tot=              0.0000
 Quadrupole moment (field-independent basis, Debye-Ang):
   XX=            -32.5841   YY=            -32.5677   ZZ=            -40.8395
   XY=             -0.0000   XZ=              0.0005   YZ=              0.0000

 Normal termination of Gaussian 16 at Wed Feb 12 16:23:25 2025.
