 Gaussian 09, Revision A.02,
 Gaussian 09:  EM64L-G09RevA.02 11-Jun-2009

 -------------------
 #P B3LYP/6-311++G**
 -------------------

 --------
 Bla-0.25
 --------
 Symbolic Z-matrix:
 Charge =  0 Multiplicity = 1

                         Standard orientation:
 ---------------------------------------------------------------------
 Center     Atomic      Atomic             Coordinates (Angstroms)
 Number     Number       Type             X           Y           Z
 ---------------------------------------------------------------------
      1          6           0        0.634832    1.243898    0.000000
      2          6           0        1.394663   -0.072168    0.000000
      3          6           0        0.759831   -1.171730    0.000000
      4          6           0       -0.759831   -1.171730    0.000000
      5          6           0       -1.394663   -0.072168    0.000000
      6          6           0       -0.634832    1.243898    0.000000
      7          1           0        1.177044    2.183038    0.000000
      8          1           0        2.479088   -0.072169    0.000000
      9          1           0        1.302044   -2.110869    0.000000
     10          1           0       -1.302044   -2.110869    0.000000
     11          1           0       -2.479088   -0.072169    0.000000
     12          1           0       -1.177044    2.183038    0.000000
 ---------------------------------------------------------------------

 SCF Done:  E(RB3LYP) =  -232.261705884     A.U. after    9 cycles

 The electronic state is 1-A1'.
 Alpha  occ. eigenvalues --  -10.17272 -10.17257 -10.17257 -10.17127 -10.17127
 Alpha  occ. eigenvalues --  -10.17110  -0.86182  -0.76190  -0.76190  -0.59694
 Alpha  occ. eigenvalues --   -0.59694  -0.53097  -0.46330  -0.45061  -0.43536
 Alpha  occ. eigenvalues --   -0.43536  -0.37445  -0.33832  -0.33832  -0.26828
 Alpha  occ. eigenvalues --   -0.26828
 Alpha virt. eigenvalues --   -0.00682  -0.00682  -0.00660   0.01014   0.01014
 Alpha virt. eigenvalues --    0.03272   0.03272   0.06242   0.06402   0.07120
 Alpha virt. eigenvalues --    0.09027   0.09027   0.09824   0.11506   0.11799

 Mulliken atomic charges:
              1
     1  C   -0.149323
     2  C   -0.149323
     3  C   -0.149323
     4  C   -0.149323
     5  C   -0.149323
     6  C   -0.149323
     7  H    0.149323
     8  H    0.149323
     9  H    0.149323
    10  H    0.149323
    11  H    0.149323
    12  H    0.149323
 Sum of Mulliken atomic charges =   0.00000

 Dipole moment (field-independent basis, Debye):
    X=              0.0000    Y=              0.0000    Z=              0.0000  Tot=              0.0000
 Quadrupole moment (field-independent basis, Debye-Ang):
   XX=            -32.0885   YY=            -32.0885   ZZ=            -39.9028
   XY=              0.0000   XZ=              0.0000   YZ=              0.0000

 Normal termination of Gaussian 09 at Thu Dec  2 19:53:07 2021.
