 Gaussian 09, Revision A.02,
 Gaussian 09:  EM64L-G09RevA.02 11-Jun-2009

 -----------------------------
 #P MP2/6-311++G** DENSITY=MP2
 -----------------------------

 ----
 X=NO
 ----
 Symbolic Z-matrix:
 Charge =  0 Multiplicity = 1

                         Standard orientation:
 ---------------------------------------------------------------------
 Center     Atomic      Atomic             Coordinates (Angstroms)
 Number     Number       Type             X           Y           Z
 ---------------------------------------------------------------------
      1          8           0       -1.333915    2.406766    0.000000
      2          7           0       -0.181762    2.024943    0.000000
      3          1           0        0.778755   -3.176570    0.000000
      4          6           0        0.000000    0.596317    0.000000
      5          6           0       -1.057331   -0.322437    0.000000
      6          1           0       -2.075718    0.046461    0.000000
      7          6           0       -0.768658   -1.678675    0.000000
      8          1           0       -1.572955   -2.405395    0.000000
      9          6           0        0.562749   -2.114048    0.000000
     10          6           0        1.610808   -1.194595    0.000000
     11          1           0        2.637846   -1.539869    0.000000
     12          6           0        1.329223    0.168655    0.000000
     13          1           0        2.114977    0.915343    0.000000
 ---------------------------------------------------------------------

 SCF Done:  E(RHF) =  -359.429740652     A.U. after   17 cycles
 E2 =    -0.1188396196D+01 EUMP2 =    -0.36061813684759D+03

 The electronic state is 1-A'.
 Alpha  occ. eigenvalues --  -20.62380 -15.70417 -11.28293 -11.26861 -11.26840
 Alpha  occ. eigenvalues --  -11.26626 -11.26026 -11.25971  -1.51335  -1.18855
 Alpha  occ. eigenvalues --   -1.08717  -1.04493  -0.95802  -0.85714  -0.81905
 Alpha  occ. eigenvalues --   -0.74214  -0.69077  -0.68216  -0.63863  -0.61812
 Alpha  occ. eigenvalues --   -0.60960  -0.60443  -0.54459  -0.51941  -0.51662
 Alpha  occ. eigenvalues --   -0.40890  -0.36227  -0.36073
 Alpha virt. eigenvalues --    0.03464   0.03689   0.04429   0.05204   0.06742
 Alpha virt. eigenvalues --    0.07355   0.09319   0.11372   0.11677   0.13636
 Alpha virt. eigenvalues --    0.14700   0.14711   0.15585   0.15646   0.17020

 Mulliken atomic charges:
              1
     1  O    0.075295
     2  N   -0.142940
     3  H    0.191283
     4  C   -0.978173
     5  C    0.724274
     6  H    0.247288
     7  C   -0.720980
     8  H    0.194828
     9  C    0.050516
    10  C   -0.590723
    11  H    0.193996
    12  C    0.501336
    13  H    0.253999
 Sum of Mulliken atomic charges =   0.00000

 Dipole moment (field-independent basis, Debye):
    X=              0.8539    Y=             -3.3289    Z=              0.0000  Tot=              3.4366
 Quadrupole moment (field-independent basis, Debye-Ang):
   XX=            -42.6563   YY=            -49.7029   ZZ=            -49.0007
   XY=              1.7508   XZ=              0.0000   YZ=              0.0000

 Normal termination of Gaussian 09 at Fri Dec  3 14:22:04 2021.
