 Gaussian 09, Revision A.02,
 Gaussian 09:  EM64L-G09RevA.02 11-Jun-2009

 --------------------
 #P CCSD-T/6-311++G**
 --------------------

 ----
 14-H
 ----
 Symbolic Z-matrix:
 Charge =  0 Multiplicity = 1

                         Standard orientation:
 ---------------------------------------------------------------------
 Center     Atomic      Atomic             Coordinates (Angstroms)
 Number     Number       Type             X           Y           Z
 ---------------------------------------------------------------------
      1          6           0        0.435761   -1.433013    0.488380
      2          6           0        0.436195    1.433102    0.488377
      3          6           0        1.318564   -0.701281   -0.286712
      4          6           0        1.318704    0.701045   -0.286697
      5          6           0       -1.561097   -0.694203   -0.228511
      6          6           0       -1.561518    0.694330   -0.228678
      7          1           0        0.381203   -2.509965    0.371060
      8          1           0        0.121018   -1.068747    1.456995
      9          1           0        0.381941    2.510088    0.371042
     10          1           0        0.121011    1.068889    1.456872
     11          1           0        1.872045   -1.211857   -1.069824
     12          1           0        1.872361    1.211433   -1.069814
     13          1           0       -2.068464   -1.230477    0.564773
     14          1           0       -1.465872   -1.233644   -1.161279
     15          1           0       -2.068749    1.230643    0.564630
     16          1           0       -1.466157    1.233764   -1.161412
 ---------------------------------------------------------------------

 SCF Done:  E(RHF) =  -232.940963748     A.U. after   14 cycles
 E2 =    -0.9084881880D+00 EUMP2 =    -0.23384945193576D+03
 CCSD(T)
 CCSD(T)= -0.23394335306D+03

 The electronic state is 1-A.
 Alpha  occ. eigenvalues --  -11.23844 -11.23842 -11.23073 -11.22948 -11.22376
 Alpha  occ. eigenvalues --  -11.22262  -1.09533  -1.01505  -0.97866  -0.85191
 Alpha  occ. eigenvalues --   -0.79688  -0.71635  -0.67085  -0.63816  -0.59596
 Alpha  occ. eigenvalues --   -0.57016  -0.56786  -0.52034  -0.50704  -0.48939
 Alpha  occ. eigenvalues --   -0.47407  -0.30524  -0.30496
 Alpha virt. eigenvalues --    0.04441   0.05099   0.05333   0.06229   0.07078
 Alpha virt. eigenvalues --    0.07418   0.07661   0.08118   0.09590   0.10888
 Alpha virt. eigenvalues --    0.10997   0.14091   0.14093   0.16280   0.16769

 Mulliken atomic charges:
              1
     1  C   -0.525398
     2  C   -0.525752
     3  C    0.047136
     4  C    0.047705
     5  C   -0.309206
     6  C   -0.309644
     7  H    0.153687
     8  H    0.170692
     9  H    0.153642
    10  H    0.170677
    11  H    0.160753
    12  H    0.160787
    13  H    0.154444
    14  H    0.148004
    15  H    0.154427
    16  H    0.148045
 Sum of Mulliken atomic charges =   0.00000

 Dipole moment (field-independent basis, Debye):
    X=             -0.5578    Y=             -0.0004    Z=              0.0318  Tot=              0.5587
 Quadrupole moment (field-independent basis, Debye-Ang):
   XX=            -43.9044   YY=            -36.4038   ZZ=            -37.9062
   XY=              0.0000   XZ=             -3.6497   YZ=              0.0003

 33.8978509\CCSD(T)=-233.9433531\RMSD=5.310e-09\PG=C01 [X(C6H10)]\\@
 Normal termination of Gaussian 09 at Thu Nov 25 13:57:55 2021.
