 Gaussian 09, Revision A.02,
 Gaussian 09:  EM64L-G09RevA.02 11-Jun-2009

 -----------------------------
 #P MP2/6-311++G** Density=MP2
 -----------------------------

 ------
 Pyrene
 ------
 Symbolic Z-matrix:
 Charge =  0 Multiplicity = 1

                         Standard orientation:
 ---------------------------------------------------------------------
 Center     Atomic      Atomic             Coordinates (Angstroms)
 Number     Number       Type             X           Y           Z
 ---------------------------------------------------------------------
      1          6           0        0.000127   -3.518966    0.000000
      2          6           0       -1.208869   -2.829282    0.000000
      3          6           0       -1.234523   -1.427212    0.000000
      4          6           0       -0.000003   -0.712453    0.000000
      5          6           0        1.234397   -1.427026    0.000000
      6          6           0        1.208893   -2.829318    0.000000
      7          6           0        2.460928   -0.679538    0.000000
      8          6           0        2.460928    0.679539    0.000000
      9          6           0        1.234398    1.427027    0.000000
     10          6           0       -0.000003    0.712453    0.000000
     11          6           0       -1.234523    1.427211    0.000000
     12          6           0       -2.460958    0.679507    0.000000
     13          6           0       -2.460958   -0.679508    0.000000
     14          6           0       -1.208869    2.829282    0.000000
     15          6           0        0.000126    3.518966    0.000000
     16          6           0        1.208893    2.829319    0.000000
     17          1           0       -3.397792   -1.226925    0.000000
     18          1           0       -3.397791    1.226924    0.000000
     19          1           0       -0.000033   -4.603162    0.000000
     20          1           0       -2.146110   -3.375683    0.000000
     21          1           0        2.146302   -3.375426    0.000000
     22          1           0        3.397679   -1.227069    0.000000
     23          1           0        3.397679    1.227069    0.000000
     24          1           0       -2.146110    3.375681    0.000000
     25          1           0       -0.000032    4.603162    0.000000
     26          1           0        2.146301    3.375428    0.000000
 ---------------------------------------------------------------------

 SCF Done:  E(RHF) =  -611.889323572     A.U. after   16 cycles
 E2 =    -0.2178233781D+01 EUMP2 =    -0.61406755735367D+03

 The electronic state is 1-A'.
 Alpha  occ. eigenvalues --  -11.25141 -11.25129 -11.25107 -11.25106 -11.24963
 Alpha  occ. eigenvalues --  -11.24873 -11.24405 -11.24405 -11.24257 -11.24257
 Alpha  occ. eigenvalues --  -11.24228 -11.24228 -11.24122 -11.24122 -11.24051
 Alpha  occ. eigenvalues --  -11.24051  -1.20322  -1.15043  -1.12542  -1.08204
 Alpha  occ. eigenvalues --   -1.04456  -1.02206  -0.99865  -0.97248  -0.86302
 Alpha  occ. eigenvalues --   -0.86064  -0.85093  -0.83210  -0.75496  -0.71672
 Alpha  occ. eigenvalues --   -0.71580  -0.69294  -0.68131  -0.65139  -0.61747
 Alpha  occ. eigenvalues --   -0.60795  -0.60652  -0.58661  -0.56769  -0.56365
 Alpha  occ. eigenvalues --   -0.56158  -0.55354  -0.52487  -0.52327  -0.49628
 Alpha  occ. eigenvalues --   -0.48012  -0.46732  -0.46658  -0.40621  -0.36603
 Alpha  occ. eigenvalues --   -0.34779  -0.30017  -0.26178
 Alpha virt. eigenvalues --    0.03714   0.04322   0.04377   0.05283   0.05435
 Alpha virt. eigenvalues --    0.05521   0.07112   0.07248   0.08387   0.09208
 Alpha virt. eigenvalues --    0.09779   0.10106   0.10442   0.11018   0.11795

 Mulliken atomic charges:
              1
     1  C   -0.512330
     2  C   -0.124681
     3  C    0.414953
     4  C   -0.391340
     5  C    0.416118
     6  C   -0.125529
     7  C   -0.238975
     8  C   -0.238975
     9  C    0.416118
    10  C   -0.391340
    11  C    0.414951
    12  C   -0.239222
    13  C   -0.239223
    14  C   -0.124679
    15  C   -0.512329
    16  C   -0.125528
    17  H    0.157721
    18  H    0.157721
    19  H    0.190170
    20  H    0.147709
    21  H    0.147677
    22  H    0.157729
    23  H    0.157729
    24  H    0.147709
    25  H    0.190170
    26  H    0.147677
 Sum of Mulliken atomic charges =   0.00000

 Dipole moment (field-independent basis, Debye):
    X=              0.0002    Y=              0.0000    Z=              0.0000  Tot=              0.0002
 Quadrupole moment (field-independent basis, Debye-Ang):
   XX=            -82.3174   YY=            -81.9433   ZZ=           -101.4945
   XY=              0.0000   XZ=              0.0000   YZ=              0.0000

 Normal termination of Gaussian 09 at Fri Dec  3 12:54:44 2021.
