 Gaussian 09, Revision A.02,
 Gaussian 09:  EM64L-G09RevA.02 11-Jun-2009

 -----------------------------
 #P MP2/6-311++G** DENSITY=MP2
 -----------------------------

 -
 O
 -
 Symbolic Z-matrix:
 Charge =  0 Multiplicity = 1

                         Standard orientation:
 ---------------------------------------------------------------------
 Center     Atomic      Atomic             Coordinates (Angstroms)
 Number     Number       Type             X           Y           Z
 ---------------------------------------------------------------------
      1          6           0        0.000000    0.717679   -0.957756
      2          6           0        0.000000   -0.717679   -0.957756
      3          6           0        0.000000   -1.095144    0.346923
      4          8           0        0.000000    0.000000    1.158526
      5          6           0        0.000000    1.095144    0.346923
      6          1           0        0.000000    1.373404   -1.813697
      7          1           0        0.000000   -1.373404   -1.813697
      8          1           0        0.000000   -2.049761    0.844593
      9          1           0        0.000000    2.049761    0.844593
 ---------------------------------------------------------------------

 SCF Done:  E(RHF) =  -228.683014257     A.U. after   13 cycles
 E2 =    -0.7529409677D+00 EUMP2 =    -0.22943595522434D+03

 The electronic state is 1-A1.
 Alpha  occ. eigenvalues --  -20.62424 -11.29179 -11.29175 -11.23519 -11.23423
 Alpha  occ. eigenvalues --   -1.46074  -1.08716  -1.00820  -0.80956  -0.78346
 Alpha  occ. eigenvalues --   -0.74163  -0.63312  -0.61242  -0.58028  -0.56672
 Alpha  occ. eigenvalues --   -0.54249  -0.39921  -0.32231
 Alpha virt. eigenvalues --    0.04224   0.04851   0.05494   0.06786   0.10404
 Alpha virt. eigenvalues --    0.11622   0.12934   0.15057   0.15071   0.15163
 Alpha virt. eigenvalues --    0.15622   0.16199   0.18025   0.18843   0.19601

 Mulliken atomic charges:
              1
     1  C   -0.120933
     2  C   -0.120933
     3  C   -0.227397
     4  O   -0.036674
     5  C   -0.227397
     6  H    0.176181
     7  H    0.176181
     8  H    0.190487
     9  H    0.190487
 Sum of Mulliken atomic charges =   0.00000

 Dipole moment (field-independent basis, Debye):
    X=              0.0000    Y=              0.0000    Z=             -0.6912  Tot=              0.6912
 Quadrupole moment (field-independent basis, Debye-Ang):
   XX=            -32.7716   YY=            -24.6448   ZZ=            -28.8241
   XY=              0.0000   XZ=              0.0000   YZ=              0.0000

 Normal termination of Gaussian 09 at Fri Dec  3 17:12:37 2021.
