 Gaussian 09, Revision A.02,
 Gaussian 09:  EM64L-G09RevA.02 11-Jun-2009

 -----------------------------
 #P MP2/6-311++G** DENSITY=MP2
 -----------------------------

 ----------
 Pyramid-20
 ----------
 Symbolic Z-matrix:
 Charge =  0 Multiplicity = 1

                         Standard orientation:
 ---------------------------------------------------------------------
 Center     Atomic      Atomic             Coordinates (Angstroms)
 Number     Number       Type             X           Y           Z
 ---------------------------------------------------------------------
      1          6           0       -1.210156    0.698711   -0.053047
      2          6           0       -1.210156   -0.698711   -0.053047
      3          6           0        0.000000   -1.397479   -0.053014
      4          6           0        1.210156   -0.698711   -0.053047
      5          6           0        1.210156    0.698711   -0.053047
      6          6           0        0.000000    1.397479   -0.053014
      7          1           0       -2.093563    1.208626    0.318206
      8          1           0       -2.093563   -1.208626    0.318206
      9          1           0        0.000000   -2.417483    0.318237
     10          1           0        2.093563   -1.208626    0.318206
     11          1           0        2.093563    1.208626    0.318206
     12          1           0        0.000000    2.417483    0.318237
 ---------------------------------------------------------------------

 SCF Done:  E(RHF) =  -230.725763300     A.U. after   12 cycles
 E2 =    -0.8337938719D+00 EUMP2 =    -0.23155955717219D+03

 The electronic state is 1-A1.
 Alpha  occ. eigenvalues --  -11.24203 -11.24147 -11.24147 -11.24025 -11.24025
 Alpha  occ. eigenvalues --  -11.23966  -1.15394  -1.01883  -1.01882  -0.82590
 Alpha  occ. eigenvalues --   -0.82588  -0.71044  -0.63959  -0.62122  -0.58948
 Alpha  occ. eigenvalues --   -0.58945  -0.50255  -0.49359  -0.49358  -0.33693
 Alpha  occ. eigenvalues --   -0.33692
 Alpha virt. eigenvalues --    0.04251   0.05264   0.05264   0.07029   0.07029
 Alpha virt. eigenvalues --    0.09197   0.10147   0.10147   0.12310   0.14554
 Alpha virt. eigenvalues --    0.14554   0.16286   0.16409   0.18314   0.18314

 Mulliken atomic charges:
              1
     1  C   -0.147432
     2  C   -0.147432
     3  C   -0.147420
     4  C   -0.147432
     5  C   -0.147432
     6  C   -0.147420
     7  H    0.147414
     8  H    0.147414
     9  H    0.147456
    10  H    0.147414
    11  H    0.147414
    12  H    0.147456
 Sum of Mulliken atomic charges =   0.00000

 Dipole moment (field-independent basis, Debye):
    X=              0.0000    Y=              0.0000    Z=              1.4595  Tot=              1.4595
 Quadrupole moment (field-independent basis, Debye-Ang):
   XX=            -33.7359   YY=            -33.7353   ZZ=            -40.0594
   XY=              0.0000   XZ=              0.0000   YZ=              0.0000

 Normal termination of Gaussian 09 at Fri Dec  3 12:18:16 2021.
