 Gaussian 09, Revision A.02,
 Gaussian 09:  EM64L-G09RevA.02 11-Jun-2009

 -----------------------------
 #P MP2/6-311++G** Density=MP2
 -----------------------------

 --
 BH
 --
 Symbolic Z-matrix:
 Charge =  0 Multiplicity = 1

                         Standard orientation:
 ---------------------------------------------------------------------
 Center     Atomic      Atomic             Coordinates (Angstroms)
 Number     Number       Type             X           Y           Z
 ---------------------------------------------------------------------
      1          6           0        1.182622    0.540736    0.000000
      2          1           0        2.136922    1.051625    0.000000
      3          6           0        0.000000    1.176883    0.000000
      4          1           0       -0.157401    2.251517    0.000000
      5          6           0       -0.731578   -1.075074    0.000000
      6          1           0       -1.395406   -1.930076    0.000000
      7          6           0       -1.160183    0.197551    0.000000
      8          1           0       -2.193148    0.533107    0.000000
      9          5           0        0.849471   -1.006342    0.000000
     10          1           0        1.616517   -1.915038    0.000000
 ---------------------------------------------------------------------

 SCF Done:  E(RHF) =  -179.049884333     A.U. after   11 cycles
 E2 =    -0.6268342133D+00 EUMP2 =    -0.17967671854587D+03

 The electronic state is 1-A'.
 Alpha  occ. eigenvalues --  -11.25487 -11.25424 -11.20695 -11.20693  -7.60469
 Alpha  occ. eigenvalues --   -1.11627  -0.97184  -0.83921  -0.71366  -0.69620
 Alpha  occ. eigenvalues --   -0.64226  -0.57089  -0.51721  -0.47108  -0.46292
 Alpha  occ. eigenvalues --   -0.45602  -0.31756
 Alpha virt. eigenvalues --    0.02334   0.04124   0.05064   0.05871   0.07109
 Alpha virt. eigenvalues --    0.07944   0.08635   0.08929   0.10767   0.13946
 Alpha virt. eigenvalues --    0.14975   0.15246   0.15979   0.16830   0.18223

 Mulliken atomic charges:
              1
     1  C   -0.364524
     2  H    0.169353
     3  C   -0.052915
     4  H    0.180059
     5  C   -0.364524
     6  H    0.169353
     7  C   -0.052916
     8  H    0.180058
     9  B    0.130691
    10  H    0.005366
 Sum of Mulliken atomic charges =   0.00000

 Dipole moment (field-independent basis, Debye):
    X=             -0.5726    Y=              0.6783    Z=              0.0000  Tot=              0.8877
 Quadrupole moment (field-independent basis, Debye-Ang):
   XX=            -29.6123   YY=            -29.6111   ZZ=            -32.7604
   XY=             -0.0033   XZ=              0.0000   YZ=              0.0000

 Normal termination of Gaussian 09 at Fri Dec  3 17:09:28 2021.
