 Gaussian 09, Revision A.02,
 Gaussian 09:  EM64L-G09RevA.02 11-Jun-2009

 ------------------------------------------------------
 #P MP2/6-311++G** DENSITY=MP2 IRC=(CalcFC,MaxCycle=50)
 ------------------------------------------------------

 -----------------------
 Acetylene trimerization
 -----------------------
 Symbolic Z-matrix:
 Charge =  0 Multiplicity = 1

 SCF Done:  E(RHF) =  -230.393714501     A.U. after   12 cycles
 E2 =    -0.8745133196D+00 EUMP2 =    -0.23126822782021D+03
 E2 =    -0.8745133196D+00 EUMP2 =    -0.23126822782021D+03
 SCF Done:  E(RHF) =  -230.393276434     A.U. after   13 cycles
 E2 =    -0.8750631160D+00 EUMP2 =    -0.23126833955046D+03
 SCF Done:  E(RHF) =  -230.390660451     A.U. after   13 cycles
 E2 =    -0.8787802350D+00 EUMP2 =    -0.23126944068577D+03
 SCF Done:  E(RHF) =  -230.391739769     A.U. after   12 cycles
 E2 =    -0.8774909428D+00 EUMP2 =    -0.23126923071162D+03
 SCF Done:  E(RHF) =  -230.392081178     A.U. after   12 cycles
 E2 =    -0.8769814245D+00 EUMP2 =    -0.23126906260226D+03
 SCF Done:  E(RHF) =  -230.392400568     A.U. after   11 cycles
 E2 =    -0.8765055778D+00 EUMP2 =    -0.23126890614545D+03
 SCF Done:  E(RHF) =  -230.392696851     A.U. after   11 cycles
 E2 =    -0.8760684425D+00 EUMP2 =    -0.23126876529310D+03
 SCF Done:  E(RHF) =  -230.392945719     A.U. after   11 cycles
 E2 =    -0.8756986837D+00 EUMP2 =    -0.23126864440261D+03
 SCF Done:  E(RHF) =  -230.393144562     A.U. after   11 cycles
 E2 =    -0.8753997801D+00 EUMP2 =    -0.23126854434256D+03
 SCF Done:  E(RHF) =  -230.385145130     A.U. after   14 cycles
 E2 =    -0.8839104638D+00 EUMP2 =    -0.23126905559333D+03
 E2 =    -0.8787294707D+00 EUMP2 =    -0.23126982994094D+03
 E2 =    -0.8818254476D+00 EUMP2 =    -0.23126927706324D+03
 E2 =    -0.8792234875D+00 EUMP2 =    -0.23126966265377D+03
 E2 =    -0.8803890341D+00 EUMP2 =    -0.23126937727103D+03
 E2 =    -0.8787312512D+00 EUMP2 =    -0.23126955514448D+03
 E2 =    -0.8795697285D+00 EUMP2 =    -0.23126943411370D+03
 E2 =    -0.8782917817D+00 EUMP2 =    -0.23126947880339D+03
 E2 =    -0.8790268340D+00 EUMP2 =    -0.23126942405068D+03
 E2 =    -0.8782291425D+00 EUMP2 =    -0.23126942968877D+03
 E2 =    -0.8806945015D+00 EUMP2 =    -0.23126963879894D+03
 E2 =    -0.8799762668D+00 EUMP2 =    -0.23126971279891D+03
 E2 =    -0.8799415454D+00 EUMP2 =    -0.23126971756603D+03
 E2 =    -0.8796052789D+00 EUMP2 =    -0.23126974075395D+03
 E2 =    -0.8794874960D+00 EUMP2 =    -0.23126976575970D+03
 E2 =    -0.8791949212D+00 EUMP2 =    -0.23126980348147D+03
 E2 =    -0.8817501864D+00 EUMP2 =    -0.23126955277584D+03
 E2 =    -0.8799305652D+00 EUMP2 =    -0.23126997969134D+03
 E2 =    -0.8799115550D+00 EUMP2 =    -0.23126999846119D+03
 E2 =    -0.8792695902D+00 EUMP2 =    -0.23127010937988D+03
 SCF Done:  E(RHF) =  -230.391255019     A.U. after   12 cycles
 E2 =    -0.8789087104D+00 EUMP2 =    -0.23127016372918D+03
 SCF Done:  E(RHF) =  -230.391550670     A.U. after   12 cycles
 E2 =    -0.8786473580D+00 EUMP2 =    -0.23127019802755D+03
 SCF Done:  E(RHF) =  -230.391747852     A.U. after   12 cycles
 E2 =    -0.8784691312D+00 EUMP2 =    -0.23127021698348D+03
 SCF Done:  E(RHF) =  -230.394145863     A.U. after   14 cycles
 E2 =    -0.8768838312D+00 EUMP2 =    -0.23127102969452D+03
 SCF Done:  E(RHF) =  -230.394983214     A.U. after   12 cycles
 E2 =    -0.8761494693D+00 EUMP2 =    -0.23127113268378D+03
 SCF Done:  E(RHF) =  -230.398894717     A.U. after   14 cycles
 E2 =    -0.8733981228D+00 EUMP2 =    -0.23127229283967D+03
 SCF Done:  E(RHF) =  -230.399309737     A.U. after   12 cycles
 E2 =    -0.8730694801D+00 EUMP2 =    -0.23127237921746D+03
 SCF Done:  E(RHF) =  -230.403897652     A.U. after   13 cycles
 E2 =    -0.8699174883D+00 EUMP2 =    -0.23127381514076D+03
 SCF Done:  E(RHF) =  -230.404219025     A.U. after   12 cycles
 E2 =    -0.8696786846D+00 EUMP2 =    -0.23127389770933D+03
 SCF Done:  E(RHF) =  -230.409195739     A.U. after   13 cycles
 E2 =    -0.8663616048D+00 EUMP2 =    -0.23127555734337D+03

                          Input orientation:
 ---------------------------------------------------------------------
 Center     Atomic      Atomic             Coordinates (Angstroms)
 Number     Number       Type             X           Y           Z
 ---------------------------------------------------------------------
      1          6           0       -1.171200    1.420186   -0.010039
      2          6           0       -0.015118    1.837033    0.009842
      3          6           0        1.810663    0.307495    0.013627
      4          6           0       -1.580928   -0.927283   -0.017328
      5          6           0        1.602496   -0.902540   -0.014395
      6          6           0       -0.642341   -1.718549    0.019839
      7          1           0        0.819594    2.477080    0.168142
      8          1           0       -2.223472    1.399677   -0.164615
      9          1           0       -2.566806   -0.532706   -0.053753
     10          1           0        2.329493    1.235115    0.011776
     11          1           0       -0.088170   -2.622233    0.098666
     12          1           0        1.751144   -1.954217   -0.055180
 ---------------------------------------------------------------------

 Alpha  occ. eigenvalues --  -11.24043 -11.23998 -11.23981 -11.23717 -11.23666
 Alpha  occ. eigenvalues --  -11.23652  -1.03991  -1.01167  -1.01144  -0.79462
 Alpha  occ. eigenvalues --   -0.79438  -0.72094  -0.70410  -0.65083  -0.64972
 Alpha  occ. eigenvalues --   -0.47733  -0.42115  -0.38545  -0.38512  -0.34764
 Alpha  occ. eigenvalues --   -0.34748
 Alpha virt. eigenvalues --    0.04254   0.04385   0.04430   0.06482   0.06515
 Alpha virt. eigenvalues --    0.08564   0.10643   0.10905   0.11873   0.12662
 Alpha virt. eigenvalues --    0.13792   0.14663   0.16288   0.16476   0.17736

 Mulliken atomic charges:
              1
     1  C   -0.168662
     2  C   -0.199763
     3  C   -0.140600
     4  C   -0.232933
     5  C   -0.315296
     6  C   -0.218783
     7  H    0.182483
     8  H    0.189504
     9  H    0.227531
    10  H    0.239822
    11  H    0.223208
    12  H    0.213489
 Sum of Mulliken atomic charges =   0.00000

 Dipole moment (field-independent basis, Debye):
    X=              0.0166    Y=             -0.0233    Z=              0.0026  Tot=              0.0287
 Quadrupole moment (field-independent basis, Debye-Ang):
   XX=            -30.9479   YY=            -31.0255   ZZ=            -41.4130
   XY=             -0.0387   XZ=              0.6338   YZ=              0.0887

  Exact polarizability:   0.000   0.000   0.000   0.000   0.000   0.000
 Approx polarizability:  79.673  -0.185  79.847   0.201   0.032  41.062

 Normal termination of Gaussian 09 at Tue Dec  7 13:38:11 2021.
