 Gaussian 09, Revision A.02,
 Gaussian 09:  EM64L-G09RevA.02 11-Jun-2009

 -----------------------------
 #P MP2/6-311++G** DENSITY=MP2
 -----------------------------

 ----------
 Pyramid-10
 ----------
 Symbolic Z-matrix:
 Charge =  0 Multiplicity = 1

                         Standard orientation:
 ---------------------------------------------------------------------
 Center     Atomic      Atomic             Coordinates (Angstroms)
 Number     Number       Type             X           Y           Z
 ---------------------------------------------------------------------
      1          6           0       -1.208367    0.697670   -0.026902
      2          6           0       -1.208367   -0.697670   -0.026902
      3          6           0        0.000000   -1.395402   -0.026919
      4          6           0        1.208367   -0.697670   -0.026902
      5          6           0        1.208367    0.697670   -0.026902
      6          6           0        0.000000    1.395402   -0.026919
      7          1           0       -2.133496    1.231724    0.161453
      8          1           0       -2.133496   -1.231724    0.161453
      9          1           0        0.000000   -2.463608    0.161435
     10          1           0        2.133496   -1.231724    0.161453
     11          1           0        2.133496    1.231724    0.161453
     12          1           0        0.000000    2.463608    0.161435
 ---------------------------------------------------------------------

 SCF Done:  E(RHF) =  -230.748490199     A.U. after   10 cycles
 E2 =    -0.8295318843D+00 EUMP2 =    -0.23157802208352D+03

 The electronic state is 1-A1.
 Alpha  occ. eigenvalues --  -11.23984 -11.23927 -11.23927 -11.23804 -11.23804
 Alpha  occ. eigenvalues --  -11.23744  -1.15262  -1.01701  -1.01700  -0.82542
 Alpha  occ. eigenvalues --   -0.82540  -0.71059  -0.64325  -0.62093  -0.58949
 Alpha  occ. eigenvalues --   -0.58946  -0.50216  -0.49547  -0.49545  -0.33706
 Alpha  occ. eigenvalues --   -0.33705
 Alpha virt. eigenvalues --    0.04246   0.05034   0.05034   0.06767   0.06767
 Alpha virt. eigenvalues --    0.09750   0.10708   0.10709   0.12701   0.14982
 Alpha virt. eigenvalues --    0.14982   0.15991   0.16316   0.18206   0.18207

 Mulliken atomic charges:
              1
     1  C   -0.159307
     2  C   -0.159307
     3  C   -0.167571
     4  C   -0.159307
     5  C   -0.159307
     6  C   -0.167571
     7  H    0.162395
     8  H    0.162395
     9  H    0.161395
    10  H    0.162395
    11  H    0.162395
    12  H    0.161395
 Sum of Mulliken atomic charges =   0.00000

 Dipole moment (field-independent basis, Debye):
    X=              0.0000    Y=              0.0000    Z=              0.7653  Tot=              0.7653
 Quadrupole moment (field-independent basis, Debye-Ang):
   XX=            -32.8657   YY=            -32.8643   ZZ=            -40.6216
   XY=              0.0000   XZ=              0.0000   YZ=              0.0000

 Normal termination of Gaussian 09 at Fri Dec  3 12:11:21 2021.
