 Gaussian 09, Revision A.02,
 Gaussian 09:  EM64L-G09RevA.02 11-Jun-2009

 -----------------------------
 #P MP2/6-311++G** DENSITY=MP2
 -----------------------------

 -------
 Boat-25
 -------
 Symbolic Z-matrix:
 Charge =  0 Multiplicity = 1

                         Standard orientation:
 ---------------------------------------------------------------------
 Center     Atomic      Atomic             Coordinates (Angstroms)
 Number     Number       Type             X           Y           Z
 ---------------------------------------------------------------------
      1          6           0        0.047573    1.390860   -0.101287
      2          6           0       -1.187102    0.726133   -0.101287
      3          6           0       -1.187102   -0.639079    0.200441
      4          6           0       -0.047573   -1.390860   -0.101287
      5          6           0        1.187102   -0.726133   -0.101287
      6          6           0        1.187102    0.639079    0.200441
      7          1           0        0.097287    2.471514   -0.166814
      8          1           0       -2.116617    1.279535   -0.167134
      9          1           0       -2.134630   -1.149127    0.346756
     10          1           0       -0.097287   -2.471514   -0.166814
     11          1           0        2.116617   -1.279535   -0.167134
     12          1           0        2.134630    1.149127    0.346756
 ---------------------------------------------------------------------

 SCF Done:  E(RHF) =  -230.728164990     A.U. after   14 cycles
 E2 =    -0.8347657793D+00 EUMP2 =    -0.23156293076954D+03

 The electronic state is 1-A.
 Alpha  occ. eigenvalues --  -11.23989 -11.23966 -11.23890 -11.23847 -11.23693
 Alpha  occ. eigenvalues --  -11.23678  -1.15418  -1.01426  -1.01342  -0.82128
 Alpha  occ. eigenvalues --   -0.82088  -0.71048  -0.64755  -0.61310  -0.59148
 Alpha  occ. eigenvalues --   -0.58480  -0.51136  -0.49851  -0.48344  -0.33077
 Alpha  occ. eigenvalues --   -0.33004
 Alpha virt. eigenvalues --    0.04163   0.04911   0.05024   0.06613   0.07115
 Alpha virt. eigenvalues --    0.09149   0.09361   0.11014   0.11910   0.14304
 Alpha virt. eigenvalues --    0.15075   0.16466   0.16700   0.17629   0.18107

 Mulliken atomic charges:
              1
     1  C   -0.174903
     2  C   -0.174661
     3  C   -0.178134
     4  C   -0.174903
     5  C   -0.174661
     6  C   -0.178134
     7  H    0.179596
     8  H    0.179622
     9  H    0.168481
    10  H    0.179596
    11  H    0.179622
    12  H    0.168481
 Sum of Mulliken atomic charges =   0.00000

 Dipole moment (field-independent basis, Debye):
    X=              0.0000    Y=              0.0000    Z=              0.0082  Tot=              0.0082
 Quadrupole moment (field-independent basis, Debye-Ang):
   XX=            -32.9703   YY=            -32.7026   ZZ=            -40.5706
   XY=             -0.2021   XZ=              0.0000   YZ=              0.0000

 Normal termination of Gaussian 09 at Fri Dec  3 15:03:40 2021.
