 Gaussian 09, Revision A.02,
 Gaussian 09:  EM64L-G09RevA.02 11-Jun-2009

 -----------------------------
 #P MP2/6-311++G** DENSITY=MP2
 -----------------------------

 ------
 X=COOH
 ------
 Symbolic Z-matrix:
 Charge =  0 Multiplicity = 1

                         Standard orientation:
 ---------------------------------------------------------------------
 Center     Atomic      Atomic             Coordinates (Angstroms)
 Number     Number       Type             X           Y           Z
 ---------------------------------------------------------------------
      1          6           0       -0.964165   -1.993456    0.000000
      2          6           0       -1.125353   -0.611100    0.000000
      3          6           0        0.000000    0.221743    0.000000
      4          6           0        1.282596   -0.338849    0.000000
      5          6           0        1.438243   -1.720196    0.000000
      6          6           0        0.315204   -2.548529    0.000000
      7          6           0       -0.114928    1.703806    0.000000
      8          1           0        2.140468    0.321995    0.000000
      9          1           0        2.432250   -2.152079    0.000000
     10          1           0        0.437277   -3.625873    0.000000
     11          1           0       -1.835669   -2.637805    0.000000
     12          1           0       -2.115081   -0.173996    0.000000
     13          8           0        0.817435    2.473119    0.000000
     14          8           0       -1.402419    2.137167    0.000000
     15          1           0       -1.368948    3.104963    0.000000
 ---------------------------------------------------------------------

 SCF Done:  E(RHF) =  -418.431735529     A.U. after   16 cycles
 E2 =    -0.1349731260D+01 EUMP2 =    -0.41978146678905D+03

 The electronic state is 1-A'.
 Alpha  occ. eigenvalues --  -20.61559 -20.55243 -11.39770 -11.26157 -11.25967
 Alpha  occ. eigenvalues --  -11.25960 -11.25719 -11.25072 -11.25004  -1.47016
 Alpha  occ. eigenvalues --   -1.36589  -1.17400  -1.05334  -1.03433  -0.90370
 Alpha  occ. eigenvalues --   -0.84746  -0.80679  -0.73571  -0.70895  -0.67977
 Alpha  occ. eigenvalues --   -0.64333  -0.63643  -0.63077  -0.60756  -0.58990
 Alpha  occ. eigenvalues --   -0.53071  -0.51999  -0.51032  -0.48789  -0.46045
 Alpha  occ. eigenvalues --   -0.35698  -0.35179
 Alpha virt. eigenvalues --    0.03619   0.04595   0.04975   0.06153   0.06694
 Alpha virt. eigenvalues --    0.07390   0.08384   0.10150   0.10437   0.12258
 Alpha virt. eigenvalues --    0.12849   0.13894   0.14859   0.15398   0.16394

 Mulliken atomic charges:
              1
     1  C    0.091884
     2  C   -0.799173
     3  C    1.041393
     4  C   -0.658590
     5  C    0.009108
     6  C   -0.492324
     7  C   -0.044342
     8  H    0.213751
     9  H    0.205015
    10  H    0.181532
    11  H    0.203209
    12  H    0.225849
    13  O   -0.275570
    14  O   -0.198591
    15  H    0.296850
 Sum of Mulliken atomic charges =   0.00000

 Dipole moment (field-independent basis, Debye):
    X=             -1.0347    Y=             -1.5040    Z=              0.0000  Tot=              1.8255
 Quadrupole moment (field-independent basis, Debye-Ang):
   XX=            -50.0017   YY=            -46.9037   ZZ=            -55.7588
   XY=             -5.6571   XZ=              0.0000   YZ=              0.0000

 Normal termination of Gaussian 09 at Fri Dec  3 14:35:20 2021.
