 Gaussian 09, Revision A.02,
 Gaussian 09:  EM64L-G09RevA.02 11-Jun-2009

 -----------------------------
 #P MP2/6-311++G** DENSITY=MP2
 -----------------------------

 ------------
 Triphenylene
 ------------
 Symbolic Z-matrix:
 Charge =  0 Multiplicity = 1

                         Standard orientation:
 ---------------------------------------------------------------------
 Center     Atomic      Atomic             Coordinates (Angstroms)
 Number     Number       Type             X           Y           Z
 ---------------------------------------------------------------------
      1          6           0       -2.431423    2.879416    0.000000
      2          6           0       -2.434607    1.496230    0.000000
      3          6           0       -1.237320    0.745059    0.000000
      4          6           0        0.000000    1.444316    0.000000
      5          6           0       -0.025222    2.857357    0.000000
      6          6           0       -1.211696    3.568628    0.000000
      7          6           0        2.512737    1.360197    0.000000
      8          6           0        1.263931    0.699212    0.000000
      9          6           0        1.250869   -0.722429    0.000000
     10          6           0       -0.026624   -1.444243    0.000000
     11          6           0       -1.250945   -0.722123    0.000000
     12          6           0        2.487097   -1.406697    0.000000
     13          6           0        3.696492   -0.734754    0.000000
     14          6           0        3.709438    0.665761    0.000000
     15          6           0       -2.461986   -1.450582    0.000000
     16          6           0       -2.484447   -2.833657    0.000000
     17          6           0       -1.277925   -3.545288    0.000000
     18          6           0       -0.078343   -2.856523    0.000000
     19          1           0       -3.371741    3.423819    0.000000
     20          1           0       -3.391753    0.988623    0.000000
     21          1           0       -1.193214    4.654994    0.000000
     22          1           0        2.505547   -2.489939    0.000000
     23          1           0        4.627616   -1.294671    0.000000
     24          1           0        4.650723    1.208458    0.000000
     25          1           0       -3.409177   -0.924765    0.000000
     26          1           0       -3.434681   -3.360561    0.000000
     27          1           0       -1.279275   -4.631832    0.000000
     28          1           0        0.840006   -3.431249    0.000000
     29          1           0        2.551976    2.442946    0.000000
     30          1           0        0.903806    3.414903    0.000000
 ---------------------------------------------------------------------

 SCF Done:  E(RHF) =  -688.798085465     A.U. after   15 cycles
 E2 =    -0.2461515749D+01 EUMP2 =    -0.69125960121336D+03

 The electronic state is 1-A'.
 Alpha  occ. eigenvalues --  -11.25643 -11.25601 -11.25600 -11.25502 -11.25502
 Alpha  occ. eigenvalues --  -11.25455 -11.24198 -11.24197 -11.24196 -11.24162
 Alpha  occ. eigenvalues --  -11.24160 -11.24160 -11.24070 -11.24069 -11.24068
 Alpha  occ. eigenvalues --  -11.23991 -11.23990 -11.23988  -1.19635  -1.14952
 Alpha  occ. eigenvalues --   -1.14950  -1.07381  -1.05255  -1.05253  -1.00012
 Alpha  occ. eigenvalues --   -0.98599  -0.98596  -0.87421  -0.85765  -0.85762
 Alpha  occ. eigenvalues --   -0.80554  -0.80548  -0.76485  -0.73678  -0.68400
 Alpha  occ. eigenvalues --   -0.68399  -0.67066  -0.65017  -0.65015  -0.60433
 Alpha  occ. eigenvalues --   -0.60431  -0.59457  -0.59455  -0.58711  -0.58673
 Alpha  occ. eigenvalues --   -0.55631  -0.53936  -0.51785  -0.51660  -0.51656
 Alpha  occ. eigenvalues --   -0.49665  -0.49664  -0.47181  -0.47177  -0.39640
 Alpha  occ. eigenvalues --   -0.37750  -0.37747  -0.32059  -0.28812  -0.28807
 Alpha virt. eigenvalues --    0.03713   0.04215   0.04215   0.05217   0.05217
 Alpha virt. eigenvalues --    0.06637   0.06839   0.07296   0.07300   0.07582
 Alpha virt. eigenvalues --    0.08811   0.08811   0.11626   0.11657   0.11657

 Mulliken atomic charges:
              1
     1  C   -0.414506
     2  C   -1.313805
     3  C    1.449969
     4  C    1.451287
     5  C   -1.314344
     6  C   -0.415336
     7  C   -1.313806
     8  C    1.450492
     9  C    1.449956
    10  C    1.451142
    11  C    1.449520
    12  C   -1.313536
    13  C   -0.414565
    14  C   -0.414462
    15  C   -1.313166
    16  C   -0.414832
    17  C   -0.415135
    18  C   -1.313602
    19  H    0.198459
    20  H    0.079760
    21  H    0.198530
    22  H    0.079589
    23  H    0.198502
    24  H    0.198455
    25  H    0.079506
    26  H    0.198511
    27  H    0.198489
    28  H    0.079612
    29  H    0.079753
    30  H    0.079564
 Sum of Mulliken atomic charges =   0.00000

 Dipole moment (field-independent basis, Debye):
    X=             -0.0004    Y=              0.0001    Z=              0.0000  Tot=              0.0004
 Quadrupole moment (field-independent basis, Debye-Ang):
   XX=            -92.2296   YY=            -92.2286   ZZ=           -115.1089
   XY=             -0.0019   XZ=              0.0000   YZ=              0.0000

 Normal termination of Gaussian 09 at Fri Dec  3 14:59:14 2021.
