 Gaussian 16, Revision A.03,
 Gaussian 16:  ES64L-G16RevA.03 25-Dec-2016

 ------------------------------------
 #P MP2/6-311++G** nosymm Density=MP2
 ------------------------------------

 --------
 Clamp-15
 --------
 Symbolic Z-matrix:
 Charge =  0 Multiplicity = 1

                          Input orientation:
 ---------------------------------------------------------------------
 Center     Atomic      Atomic             Coordinates (Angstroms)
 Number     Number       Type             X           Y           Z
 ---------------------------------------------------------------------
      1          6           0        1.401541    0.015763    0.000000
      2          6           0        0.714396    1.205856    0.000000
      3          6           0       -0.714396    1.205856    0.000000
      4          6           0       -1.401541    0.015763    0.000000
      5          6           0       -0.687113   -1.221617    0.000000
      6          6           0        0.687113   -1.221617    0.000000
      7          1           0        2.448747   -0.264852    0.000000
      8          1           0        0.994998    2.253073    0.000000
      9          1           0       -0.994998    2.253073    0.000000
     10          1           0       -2.448747   -0.264852    0.000000
     11          1           0       -1.453710   -1.988240    0.000000
     12          1           0        1.453710   -1.988240    0.000000
 ---------------------------------------------------------------------

 SCF Done:  E(RHF) =  -230.703436174     A.U. after   12 cycles
 E2 =    -0.8345988493D+00 EUMP2 =    -0.23153803502290D+03

 Alpha  occ. eigenvalues --  -11.24298 -11.24244 -11.24244 -11.24121 -11.24121
 Alpha  occ. eigenvalues --  -11.24064  -1.15153  -1.01971  -1.01971  -0.83057
 Alpha  occ. eigenvalues --   -0.83056  -0.72633  -0.63788  -0.61092  -0.58975
 Alpha  occ. eigenvalues --   -0.58975  -0.50110  -0.48290  -0.48289  -0.33862
 Alpha  occ. eigenvalues --   -0.33862
 Alpha virt. eigenvalues --    0.04191   0.04888   0.04888   0.06668   0.06668
 Alpha virt. eigenvalues --    0.08864   0.10657   0.10658   0.12905   0.15269
 Alpha virt. eigenvalues --    0.15269   0.15533   0.16150   0.17444   0.17444

 Mulliken charges:
               1
     1  C   -0.175799
     2  C   -0.175748
     3  C   -0.175748
     4  C   -0.175799
     5  C   -0.175777
     6  C   -0.175777
     7  H    0.175776
     8  H    0.175773
     9  H    0.175773
    10  H    0.175776
    11  H    0.175774
    12  H    0.175774
 Sum of Mulliken charges =  -0.00000

 Dipole moment (field-independent basis, Debye):
    X=              0.0000    Y=             -0.0000    Z=             -0.0000  Tot=              0.0000
 Quadrupole moment (field-independent basis, Debye-Ang):
   XX=            -32.9649   YY=            -32.9654   ZZ=            -40.8797
   XY=              0.0000   XZ=              0.0000   YZ=              0.0000

 Normal termination of Gaussian 16 at Wed Feb 12 15:56:21 2025.
