 Gaussian 16, Revision A.03,
 Gaussian 16:  ES64L-G16RevA.03 25-Dec-2016

 ------------------------------------
 #P MP2/6-311++G** nosymm Density=MP2
 ------------------------------------

 -
 O
 -
 Symbolic Z-matrix:
 Charge =  0 Multiplicity = 1

                          Input orientation:
 ---------------------------------------------------------------------
 Center     Atomic      Atomic             Coordinates (Angstroms)
 Number     Number       Type             X           Y           Z
 ---------------------------------------------------------------------
      1          6           0        0.717679   -0.957756    0.000000
      2          6           0       -0.717679   -0.957756    0.000000
      3          6           0       -1.095144    0.346923    0.000000
      4          8           0        0.000000    1.158526    0.000000
      5          6           0        1.095144    0.346923    0.000000
      6          1           0        1.373404   -1.813697    0.000000
      7          1           0       -1.373404   -1.813697    0.000000
      8          1           0       -2.049761    0.844593    0.000000
      9          1           0        2.049761    0.844593    0.000000
 ---------------------------------------------------------------------

 SCF Done:  E(RHF) =  -228.683014237     A.U. after   13 cycles
 E2 =    -0.7529409917D+00 EUMP2 =    -0.22943595522879D+03

 Alpha  occ. eigenvalues --  -20.62424 -11.29179 -11.29175 -11.23519 -11.23423
 Alpha  occ. eigenvalues --   -1.46074  -1.08716  -1.00820  -0.80956  -0.78346
 Alpha  occ. eigenvalues --   -0.74163  -0.63312  -0.61242  -0.58028  -0.56672
 Alpha  occ. eigenvalues --   -0.54249  -0.39921  -0.32231
 Alpha virt. eigenvalues --    0.04224   0.04851   0.05494   0.06786   0.10404
 Alpha virt. eigenvalues --    0.11622   0.12934   0.15057   0.15071   0.15163
 Alpha virt. eigenvalues --    0.15622   0.16199   0.18025   0.18843   0.19601

 Mulliken charges:
               1
     1  C   -0.120933
     2  C   -0.120933
     3  C   -0.227397
     4  O   -0.036674
     5  C   -0.227397
     6  H    0.176181
     7  H    0.176181
     8  H    0.190487
     9  H    0.190487
 Sum of Mulliken charges =  -0.00000

 Dipole moment (field-independent basis, Debye):
    X=             -0.0000    Y=             -0.6912    Z=             -0.0000  Tot=              0.6912
 Quadrupole moment (field-independent basis, Debye-Ang):
   XX=            -24.6448   YY=            -28.8241   ZZ=            -32.7716
   XY=              0.0000   XZ=             -0.0000   YZ=              0.0000

 Normal termination of Gaussian 16 at Thu Feb 13 09:44:55 2025.
