 Gaussian 09, Revision A.02,
 Gaussian 09:  EM64L-G09RevA.02 11-Jun-2009

 -----------------------------
 #P MP2/6-311++G** DENSITY=MP2
 -----------------------------

 ----------
 Pyramid-15
 ----------
 Symbolic Z-matrix:
 Charge =  0 Multiplicity = 1

                         Standard orientation:
 ---------------------------------------------------------------------
 Center     Atomic      Atomic             Coordinates (Angstroms)
 Number     Number       Type             X           Y           Z
 ---------------------------------------------------------------------
      1          6           0       -1.209103    0.698100   -0.040128
      2          6           0       -1.209103   -0.698100   -0.040128
      3          6           0        0.000000   -1.396263   -0.040097
      4          6           0        1.209103   -0.698100   -0.040128
      5          6           0        1.209103    0.698100   -0.040128
      6          6           0        0.000000    1.396263   -0.040097
      7          1           0       -2.116788    1.222046    0.240696
      8          1           0       -2.116788   -1.222046    0.240696
      9          1           0        0.000000   -2.444307    0.240726
     10          1           0        2.116788   -1.222046    0.240696
     11          1           0        2.116788    1.222046    0.240696
     12          1           0        0.000000    2.444307    0.240726
 ---------------------------------------------------------------------

 SCF Done:  E(RHF) =  -230.739014604     A.U. after   10 cycles
 E2 =    -0.8313518811D+00 EUMP2 =    -0.23157036648549D+03

 The electronic state is 1-A1.
 Alpha  occ. eigenvalues --  -11.24075 -11.24019 -11.24018 -11.23896 -11.23896
 Alpha  occ. eigenvalues --  -11.23837  -1.15317  -1.01777  -1.01776  -0.82562
 Alpha  occ. eigenvalues --   -0.82561  -0.71052  -0.64174  -0.62106  -0.58948
 Alpha  occ. eigenvalues --   -0.58945  -0.50233  -0.49470  -0.49468  -0.33701
 Alpha  occ. eigenvalues --   -0.33700
 Alpha virt. eigenvalues --    0.04260   0.05152   0.05152   0.06897   0.06897
 Alpha virt. eigenvalues --    0.09699   0.10465   0.10466   0.12501   0.14763
 Alpha virt. eigenvalues --    0.14763   0.16149   0.16355   0.18277   0.18278

 Mulliken atomic charges:
              1
     1  C   -0.150824
     2  C   -0.150824
     3  C   -0.157002
     4  C   -0.150824
     5  C   -0.150824
     6  C   -0.157002
     7  H    0.153130
     8  H    0.153130
     9  H    0.152389
    10  H    0.153130
    11  H    0.153130
    12  H    0.152389
 Sum of Mulliken atomic charges =   0.00000

 Dipole moment (field-independent basis, Debye):
    X=              0.0000    Y=              0.0000    Z=              1.1239  Tot=              1.1239
 Quadrupole moment (field-independent basis, Debye-Ang):
   XX=            -33.2369   YY=            -33.2357   ZZ=            -40.3844
   XY=              0.0000   XZ=              0.0000   YZ=              0.0000

 Normal termination of Gaussian 09 at Fri Dec  3 12:12:36 2021.
