                         Program Version 6.0.1  -  RELEASE   -
|  1> ! GOAT XTB
|  2> %pal
|  3>    nprocs 4
|  4> end
|  5>
|  6> * xyz 0 1
|  7>    C     -1.212626    0.700110    0.000000
|  8>    C      0.000000    1.400215    0.000000
|  9>    C      1.212626    0.700108    0.000000
| 10>    C      1.212626   -0.700110    0.000000
| 11>    C     -0.000000   -1.400215    0.000000
| 12>    C     -1.212626   -0.700108    0.000000
| 13>    H     -2.153778    1.243486    0.000000
| 14>    H      0.000000    2.486965    0.000000
| 15>    H      2.153777    1.243486    0.000000
| 16>    H      2.153778   -1.243486    0.000000
| 17>    H     -0.000000   -2.486965    0.000000
| 18>    H     -2.153777   -1.243486    0.000000
| 19> *
| 20>
| 21>
| 22>
| 23>                          ****END OF INPUT****
FINAL SINGLE POINT ENERGY       -15.878013426260
FINAL SINGLE POINT ENERGY       -15.879627415650
FINAL SINGLE POINT ENERGY       -15.879640587360
FINAL SINGLE POINT ENERGY       -15.879640657030
                    ***********************HURRAY********************

CARTESIAN COORDINATES (ANGSTROEM)
---------------------------------
  C    -1.199087    0.692293   -0.000000
  C     0.000000    1.384586   -0.000000
  C     1.199087    0.692293    0.000000
  C     1.199087   -0.692293    0.000000
  C    -0.000000   -1.384586   -0.000000
  C    -1.199087   -0.692293    0.000000
  H    -2.134797    1.232526   -0.000000
  H     0.000000    2.465051   -0.000000
  H     2.134797    1.232526    0.000000
  H     2.134797   -1.232526    0.000000
  H    -0.000000   -2.465051   -0.000000
  H    -2.134797   -1.232526    0.000000

FINAL SINGLE POINT ENERGY       -15.879640657440

DIPOLE MOMENT
-------------
                                X             Y             Z
Total Dipole Moment    :     -0.00000       0.00000      -0.00000
                        -----------------------------------------
Magnitude (a.u.)       :      0.00000
Magnitude (Debye)      :      0.00000

                             ****ORCA TERMINATED NORMALLY****
TOTAL RUN TIME: 0 days 0 hours 44 minutes 38 seconds 656 msec
