 Gaussian 09, Revision A.02,
 Gaussian 09:  EM64L-G09RevA.02 11-Jun-2009

 -----------------------------
 #P MP2/6-311++G** DENSITY=MP2
 -----------------------------

 ---
 X=H
 ---
 Symbolic Z-matrix:
 Charge =  0 Multiplicity = 1

                         Standard orientation:
 ---------------------------------------------------------------------
 Center     Atomic      Atomic             Coordinates (Angstroms)
 Number     Number       Type             X           Y           Z
 ---------------------------------------------------------------------
      1          6           0        0.000000    1.215806    0.259980
      2          6           0        0.000000    1.206760   -1.134311
      3          6           0        0.000000    0.000000   -1.833153
      4          6           0        0.000000   -1.206760   -1.134311
      5          6           0        0.000000   -1.215806    0.259980
      6          6           0        0.000000    0.000000    0.925809
      7          9           0        0.000000    0.000000    2.282918
      8          1           0        0.000000    0.000000   -2.916547
      9          1           0        0.000000    2.138829    0.826056
     10          1           0        0.000000   -2.138829    0.826056
     11          1           0        0.000000    2.147289   -1.672892
     12          1           0        0.000000   -2.147289   -1.672892
 ---------------------------------------------------------------------

 SCF Done:  E(RHF) =  -329.636437412     A.U. after   14 cycles
 E2 =    -0.1025829724D+01 EUMP2 =    -0.33066226713670D+03

 The electronic state is 1-A1.
 Alpha  occ. eigenvalues --  -26.30794 -11.33435 -11.25567 -11.25561 -11.24992
 Alpha  occ. eigenvalues --  -11.24990 -11.24606  -1.62285  -1.16944  -1.03716
 Alpha  occ. eigenvalues --   -1.02707  -0.85900  -0.84399  -0.74645  -0.70057
 Alpha  occ. eigenvalues --   -0.69020  -0.69017  -0.62762  -0.61032  -0.59823
 Alpha  occ. eigenvalues --   -0.53513  -0.51205  -0.51201  -0.35439  -0.34402
 Alpha virt. eigenvalues --    0.03921   0.04637   0.05234   0.06664   0.07199
 Alpha virt. eigenvalues --    0.09713   0.10837   0.12114   0.12578   0.14718
 Alpha virt. eigenvalues --    0.15176   0.15264   0.15992   0.17779   0.17819

 Mulliken atomic charges:
              1
     1  C    0.329504
     2  C   -0.316398
     3  C   -0.208013
     4  C   -0.316398
     5  C    0.329504
     6  C   -0.659174
     7  F   -0.167296
     8  H    0.179952
     9  H    0.220792
    10  H    0.220792
    11  H    0.193367
    12  H    0.193367
 Sum of Mulliken atomic charges =   0.00000

 Dipole moment (field-independent basis, Debye):
    X=              0.0000    Y=              0.0000    Z=             -1.7096  Tot=              1.7096
 Quadrupole moment (field-independent basis, Debye-Ang):
   XX=            -44.1865   YY=            -35.0510   ZZ=            -41.7494
   XY=              0.0000   XZ=              0.0000   YZ=              0.0000

 Normal termination of Gaussian 09 at Fri Dec  3 14:19:03 2021.
