 Gaussian 09, Revision A.02,
 Gaussian 09:  EM64L-G09RevA.02 11-Jun-2009

 -----------------------------
 #P MP2/6-311++G** DENSITY=MP2
 -----------------------------

 ----------
 Penta-Nh2p
 ----------
 Symbolic Z-matrix:
 Charge =  1 Multiplicity = 1

                         Standard orientation:
 ---------------------------------------------------------------------
 Center     Atomic      Atomic             Coordinates (Angstroms)
 Number     Number       Type             X           Y           Z
 ---------------------------------------------------------------------
      1          6           0        0.000000    0.695878    0.000000
      2          6           0        1.202665   -0.156428    0.000000
      3          1           0        2.220793    0.202950    0.000000
      4          6           0        0.757738   -1.420960    0.000000
      5          1           0        1.361452   -2.318039    0.000000
      6          6           0       -1.202625   -0.156686    0.000000
      7          1           0       -2.220751    0.202702    0.000000
      8          6           0       -0.757497   -1.421104    0.000000
      9          1           0       -1.360976   -2.318335    0.000000
     10          7           0       -0.000224    1.991154    0.000000
     11          1           0        0.864800    2.524373    0.000000
     12          1           0       -0.865435    2.524071    0.000000
 ---------------------------------------------------------------------

 SCF Done:  E(RHF) =  -247.075363236     A.U. after   14 cycles
 E2 =    -0.8369586951D+00 EUMP2 =    -0.24791232193156D+03

 The electronic state is 1-A'.
 Alpha  occ. eigenvalues --  -15.84739 -11.55884 -11.46040 -11.45976 -11.43149
 Alpha  occ. eigenvalues --  -11.43146  -1.50515  -1.35981  -1.19307  -1.13258
 Alpha  occ. eigenvalues --   -0.99594  -0.99588  -0.91941  -0.90389  -0.80736
 Alpha  occ. eigenvalues --   -0.78070  -0.76547  -0.72965  -0.72570  -0.63407
 Alpha  occ. eigenvalues --   -0.52616
 Alpha virt. eigenvalues --   -0.17117  -0.09109  -0.06597  -0.06520  -0.04319
 Alpha virt. eigenvalues --   -0.04080  -0.02387  -0.02066  -0.01011  -0.00071
 Alpha virt. eigenvalues --    0.00543   0.01295   0.02253   0.03303   0.03437

 Mulliken atomic charges:
              1
     1  C   -0.257468
     2  C    0.050729
     3  H    0.270083
     4  C   -0.233535
     5  H    0.271792
     6  C    0.050936
     7  H    0.270071
     8  C   -0.233839
     9  H    0.271784
    10  N   -0.152094
    11  H    0.345772
    12  H    0.345770
 Sum of Mulliken atomic charges =   1.00000

 Dipole moment (field-independent basis, Debye):
    X=             -0.0002    Y=              3.4636    Z=              0.0000  Tot=              3.4636
 Quadrupole moment (field-independent basis, Debye-Ang):
   XX=            -24.4248   YY=            -10.3187   ZZ=            -36.8821
   XY=             -0.0023   XZ=              0.0000   YZ=              0.0000

 Normal termination of Gaussian 09 at Fri Dec  3 17:34:25 2021.
