 Gaussian 09, Revision A.02,
 Gaussian 09:  EM64L-G09RevA.02 11-Jun-2009

 ---------------------------------
 #P MP2/6-311++G** OPT DENSITY=MP2
 ---------------------------------

 ----------
 Pyramid-25
 ----------
 Symbolic Z-matrix:
 Charge =  0 Multiplicity = 1

 SCF Done:  E(RHF) =  -230.708703262     A.U. after   12 cycles
 E2 =    -0.8367839183D+00 EUMP2 =    -0.23154548718023D+03
 SCF Done:  E(RHF) =  -230.723353879     A.U. after   10 cycles
 E2 =    -0.8349262268D+00 EUMP2 =    -0.23155828010547D+03
 SCF Done:  E(RHF) =  -230.743184532     A.U. after   12 cycles
 E2 =    -0.8324088859D+00 EUMP2 =    -0.23157559341757D+03
 SCF Done:  E(RHF) =  -230.751559596     A.U. after   12 cycles
 E2 =    -0.8316928196D+00 EUMP2 =    -0.23158325241610D+03
 SCF Done:  E(RHF) =  -230.755296515     A.U. after   10 cycles
 E2 =    -0.8289143410D+00 EUMP2 =    -0.23158421085559D+03
 SCF Done:  E(RHF) =  -230.755129451     A.U. after    7 cycles
 E2 =    -0.8290853697D+00 EUMP2 =    -0.23158421482048D+03
 Optimization completed.
    -- Stationary point found.

                         Standard orientation:
 ---------------------------------------------------------------------
 Center     Atomic      Atomic             Coordinates (Angstroms)
 Number     Number       Type             X           Y           Z
 ---------------------------------------------------------------------
      1          6           0       -0.000132    0.700134    1.212670
      2          6           0       -0.000132   -0.700134    1.212670
      3          6           0       -0.000129   -1.400267    0.000000
      4          6           0       -0.000132   -0.700134   -1.212670
      5          6           0       -0.000132    0.700134   -1.212670
      6          6           0       -0.000130    1.400267    0.000000
      7          1           0        0.000784    1.243516    2.153825
      8          1           0        0.000784   -1.243516    2.153825
      9          1           0        0.000788   -2.487021    0.000000
     10          1           0        0.000784   -1.243516   -2.153825
     11          1           0        0.000784    1.243516   -2.153825
     12          1           0        0.000787    2.487021    0.000000
 ---------------------------------------------------------------------

 The electronic state is 1-A'.
 Alpha  occ. eigenvalues --  -11.24128 -11.24072 -11.24072 -11.23953 -11.23953
 Alpha  occ. eigenvalues --  -11.23894  -1.14884  -1.01454  -1.01454  -0.82414
 Alpha  occ. eigenvalues --   -0.82414  -0.70854  -0.64517  -0.61871  -0.58861
 Alpha  occ. eigenvalues --   -0.58861  -0.49977  -0.49600  -0.49600  -0.33618
 Alpha  occ. eigenvalues --   -0.33618
 Alpha virt. eigenvalues --    0.04214   0.04894   0.04894   0.06616   0.06616
 Alpha virt. eigenvalues --    0.09774   0.10805   0.10805   0.12965   0.15272
 Alpha virt. eigenvalues --    0.15272   0.15809   0.16268   0.18070   0.18070

 Mulliken atomic charges:
              1
     1  C   -0.171268
     2  C   -0.171268
     3  C   -0.181228
     4  C   -0.171268
     5  C   -0.171268
     6  C   -0.181228
     7  H    0.174998
     8  H    0.174998
     9  H    0.173766
    10  H    0.174998
    11  H    0.174998
    12  H    0.173766
 Sum of Mulliken atomic charges =   0.00000

 Dipole moment (field-independent basis, Debye):
    X=              0.0038    Y=              0.0000    Z=              0.0000  Tot=              0.0038
 Quadrupole moment (field-independent basis, Debye-Ang):
   XX=            -40.9234   YY=            -32.5334   ZZ=            -32.5338
   XY=              0.0000   XZ=              0.0000   YZ=              0.0000

 Normal termination of Gaussian 09 at Thu Jan  6 16:27:12 2022.
