 Gaussian 09, Revision A.02,
 Gaussian 09:  EM64L-G09RevA.02 11-Jun-2009

 -----------------------------
 #P MP2/6-311++G** DENSITY=MP2
 -----------------------------

 --------
 Clamp-25
 --------
 Symbolic Z-matrix:
 Charge =  0 Multiplicity = 1

                         Standard orientation:
 ---------------------------------------------------------------------
 Center     Atomic      Atomic             Coordinates (Angstroms)
 Number     Number       Type             X           Y           Z
 ---------------------------------------------------------------------
      1          6           0        0.000000    1.418750    0.035068
      2          6           0        0.000000    0.739706    1.211085
      3          6           0        0.000000   -0.739706    1.211085
      4          6           0        0.000000   -1.418750    0.035068
      5          6           0        0.000000   -0.678985   -1.246143
      6          6           0        0.000000    0.678985   -1.246143
      7          1           0        0.000000    2.399504   -0.422303
      8          1           0        0.000000    0.834025    2.289132
      9          1           0        0.000000   -0.834025    2.289132
     10          1           0        0.000000   -2.399504   -0.422303
     11          1           0        0.000000   -1.565428   -1.866882
     12          1           0        0.000000    1.565428   -1.866882
 ---------------------------------------------------------------------

 SCF Done:  E(RHF) =  -230.603992378     A.U. after   12 cycles
 E2 =    -0.8466408410D+00 EUMP2 =    -0.23145063321864D+03

 The electronic state is 1-A1.
 Alpha  occ. eigenvalues --  -11.24991 -11.24944 -11.24944 -11.24817 -11.24817
 Alpha  occ. eigenvalues --  -11.24767  -1.14793  -1.02423  -1.02423  -0.84159
 Alpha  occ. eigenvalues --   -0.84158  -0.74862  -0.62868  -0.59681  -0.58797
 Alpha  occ. eigenvalues --   -0.58796  -0.49760  -0.46015  -0.46013  -0.34205
 Alpha  occ. eigenvalues --   -0.34205
 Alpha virt. eigenvalues --    0.04165   0.04897   0.04897   0.06717   0.06717
 Alpha virt. eigenvalues --    0.08949   0.10188   0.10189   0.12867   0.15048
 Alpha virt. eigenvalues --    0.15317   0.15317   0.16135   0.16823   0.16823

 Mulliken atomic charges:
              1
     1  C   -0.164581
     2  C   -0.164467
     3  C   -0.164467
     4  C   -0.164581
     5  C   -0.164586
     6  C   -0.164586
     7  H    0.164541
     8  H    0.164541
     9  H    0.164541
    10  H    0.164541
    11  H    0.164552
    12  H    0.164552
 Sum of Mulliken atomic charges =   0.00000

 Dipole moment (field-independent basis, Debye):
    X=              0.0000    Y=              0.0000    Z=             -0.0001  Tot=              0.0001
 Quadrupole moment (field-independent basis, Debye-Ang):
   XX=            -41.0096   YY=            -33.6616   ZZ=            -33.6624
   XY=              0.0000   XZ=              0.0000   YZ=              0.0000

 Normal termination of Gaussian 09 at Fri Dec  3 11:43:08 2021.
