 Gaussian 09, Revision A.02,
 Gaussian 09:  EM64L-G09RevA.02 11-Jun-2009

 -----------------------
 #P B3LYP/6-311++G** OPT
 -----------------------

 ------------------------------------------
 X=COCH3 - Original geometry missing oxygen
 ------------------------------------------
 Symbolic Z-matrix:
 Charge =  0 Multiplicity = 1

 SCF Done:  E(RB3LYP) =  -384.974526075     A.U. after   15 cycles
 SCF Done:  E(RB3LYP) =  -384.997972739     A.U. after   13 cycles
 SCF Done:  E(RB3LYP) =  -385.001168753     A.U. after   12 cycles
 SCF Done:  E(RB3LYP) =  -385.001768076     A.U. after   15 cycles
 SCF Done:  E(RB3LYP) =  -385.001787376     A.U. after   10 cycles
 SCF Done:  E(RB3LYP) =  -385.001785522     A.U. after   17 cycles
 SCF Done:  E(RB3LYP) =  -385.001788612     A.U. after   17 cycles
 Optimization completed.
    -- Stationary point found.

                         Standard orientation:
 ---------------------------------------------------------------------
 Center     Atomic      Atomic             Coordinates (Angstroms)
 Number     Number       Type             X           Y           Z
 ---------------------------------------------------------------------
      1          6           0       -1.966447   -1.134835    0.000011
      2          6           0       -2.590402    0.114375    0.000052
      3          6           0       -1.821217    1.276356    0.000024
      4          6           0       -0.430640    1.191445   -0.000036
      5          6           0        0.204417   -0.057490   -0.000079
      6          6           0       -0.579811   -1.219712   -0.000057
      7          6           0        1.698924   -0.204352   -0.000171
      8          8           0        2.213266   -1.307052    0.000003
      9          6           0        2.558605    1.046241    0.000141
     10          1           0       -0.076948   -2.179019   -0.000095
     11          1           0       -2.564095   -2.039405    0.000030
     12          1           0       -3.672716    0.180872    0.000102
     13          1           0       -2.303073    2.247444    0.000052
     14          1           0        0.153570    2.103587   -0.000059
     15          1           0        3.606173    0.750087    0.000280
     16          1           0        2.355346    1.660443   -0.881969
     17          1           0        2.355049    1.660240    0.882326
 ---------------------------------------------------------------------

 The electronic state is 1-A.
 Alpha  occ. eigenvalues --  -19.11547 -10.26876 -10.19641 -10.19561 -10.19462
 Alpha  occ. eigenvalues --  -10.19187 -10.18992 -10.18880 -10.17913  -1.05013
 Alpha  occ. eigenvalues --   -0.87576  -0.78483  -0.76549  -0.74085  -0.64143
 Alpha  occ. eigenvalues --   -0.62148  -0.56494  -0.52324  -0.47976  -0.47102
 Alpha  occ. eigenvalues --   -0.45970  -0.45333  -0.44001  -0.42710  -0.40191
 Alpha  occ. eigenvalues --   -0.39133  -0.37255  -0.36487  -0.35975  -0.27457
 Alpha  occ. eigenvalues --   -0.27105  -0.26180
 Alpha virt. eigenvalues --   -0.07083  -0.02862  -0.01389  -0.00012   0.01041
 Alpha virt. eigenvalues --    0.01929   0.02486   0.03017   0.03399   0.04031
 Alpha virt. eigenvalues --    0.05710   0.06344   0.06362   0.07412   0.08152

 Mulliken atomic charges:
              1
     1  C   -0.406795
     2  C   -0.154172
     3  C   -0.479860
     4  C   -1.017227
     5  C    1.227580
     6  C    0.444639
     7  C   -0.266493
     8  O   -0.248829
     9  C   -0.456697
    10  H    0.198894
    11  H    0.172945
    12  H    0.158617
    13  H    0.175645
    14  H    0.143971
    15  H    0.201265
    16  H    0.153255
    17  H    0.153262
 Sum of Mulliken atomic charges =   0.00000

 Dipole moment (field-independent basis, Debye):
    X=             -1.9947    Y=              2.5579    Z=              0.0000  Tot=              3.2437
 Quadrupole moment (field-independent basis, Debye-Ang):
   XX=            -51.8529   YY=            -51.4643   ZZ=            -55.9961
   XY=              6.9001   XZ=             -0.0003   YZ=              0.0003

 1\1\GINC-DLT01\FOpt\RB3LYP\6-311++G(d,p)\C8H8O1\ITAMAR\14-Dec-2021\0\\
 #P B3LYP/6-311++G** OPT\\X=COCH3 - Original geometry missing oxygen\\0
 ,1\C,-1.9449128897,1.1068277693,0.0000336987\C,-2.518174181,-0.1664434
 95,-0.0000075289\C,-1.7029243525,-1.2965812088,0.0000201248\C,-0.31688
 1243,-1.1558692572,0.0000802903\C,0.2674830504,0.1175726161,0.00012361
 1\C,-0.5628070303,1.2473474146,0.0001012816\C,1.7548830084,0.324361481
 9,0.0002149813\O,2.2245057283,1.4468369843,0.0000409441\C,2.6641154719
 ,-0.8906814046,-0.0000971214\H,-0.0988924663,2.226083794,0.0001395161\

 Normal termination of Gaussian 09 at Tue Dec 14 10:33:52 2021.
