 Gaussian 09, Revision A.02,
 Gaussian 09:  EM64L-G09RevA.02 11-Jun-2009

 -----------------------------
 #P MP2/6-311++G** DENSITY=MP2
 -----------------------------

 -------
 Clamp-5
 -------
 Symbolic Z-matrix:
 Charge =  0 Multiplicity = 1

                         Standard orientation:
 ---------------------------------------------------------------------
 Center     Atomic      Atomic             Coordinates (Angstroms)
 Number     Number       Type             X           Y           Z
 ---------------------------------------------------------------------
      1          6           0        0.000000    1.395370    0.004571
      2          6           0        0.000000    0.701622    1.206105
      3          6           0        0.000000   -0.701622    1.206105
      4          6           0        0.000000   -1.395370    0.004571
      5          6           0        0.000000   -0.693714   -1.210669
      6          6           0        0.000000    0.693714   -1.210669
      7          1           0        0.000000    2.475661   -0.089965
      8          1           0        0.000000    1.159918    2.188921
      9          1           0        0.000000   -1.159918    2.188921
     10          1           0        0.000000   -2.475661   -0.089965
     11          1           0        0.000000   -1.315698   -2.099000
     12          1           0        0.000000    1.315698   -2.099000
 ---------------------------------------------------------------------

 SCF Done:  E(RHF) =  -230.750364453     A.U. after   12 cycles
 E2 =    -0.8287014164D+00 EUMP2 =    -0.23157906586951D+03

 The electronic state is 1-A1.
 Alpha  occ. eigenvalues --  -11.23953 -11.23896 -11.23896 -11.23773 -11.23773
 Alpha  occ. eigenvalues --  -11.23713  -1.15214  -1.01677  -1.01677  -0.82579
 Alpha  occ. eigenvalues --   -0.82579  -0.71255  -0.64368  -0.61956  -0.58960
 Alpha  occ. eigenvalues --   -0.58959  -0.50193  -0.49456  -0.49455  -0.33725
 Alpha  occ. eigenvalues --   -0.33725
 Alpha virt. eigenvalues --    0.04209   0.04894   0.04894   0.06631   0.06631
 Alpha virt. eigenvalues --    0.08814   0.10889   0.10889   0.12931   0.15260
 Alpha virt. eigenvalues --    0.15260   0.15775   0.16261   0.17962   0.17962

 Mulliken atomic charges:
              1
     1  C   -0.178151
     2  C   -0.178110
     3  C   -0.178110
     4  C   -0.178151
     5  C   -0.178097
     6  C   -0.178097
     7  H    0.178121
     8  H    0.178117
     9  H    0.178117
    10  H    0.178121
    11  H    0.178119
    12  H    0.178119
 Sum of Mulliken atomic charges =   0.00000

 Dipole moment (field-independent basis, Debye):
    X=              0.0000    Y=              0.0000    Z=              0.0000  Tot=              0.0000
 Quadrupole moment (field-independent basis, Debye-Ang):
   XX=            -40.8211   YY=            -32.5979   ZZ=            -32.5985
   XY=              0.0000   XZ=              0.0000   YZ=              0.0000

 Normal termination of Gaussian 09 at Fri Dec  3 11:49:53 2021.
