 Gaussian 16, Revision A.03,
 Gaussian 16:  ES64L-G16RevA.03 25-Dec-2016

 ------------------------------------
 #P MP2/6-311++G** nosymm Density=MP2
 ------------------------------------

 -------
 Clamp-5
 -------
 Symbolic Z-matrix:
 Charge =  0 Multiplicity = 1

                          Input orientation:
 ---------------------------------------------------------------------
 Center     Atomic      Atomic             Coordinates (Angstroms)
 Number     Number       Type             X           Y           Z
 ---------------------------------------------------------------------
      1          6           0        1.395370    0.004571    0.000000
      2          6           0        0.701622    1.206105    0.000000
      3          6           0       -0.701622    1.206105    0.000000
      4          6           0       -1.395370    0.004571    0.000000
      5          6           0       -0.693714   -1.210669    0.000000
      6          6           0        0.693714   -1.210669    0.000000
      7          1           0        2.475661   -0.089965    0.000000
      8          1           0        1.159918    2.188921    0.000000
      9          1           0       -1.159918    2.188921    0.000000
     10          1           0       -2.475661   -0.089965    0.000000
     11          1           0       -1.315698   -2.099000    0.000000
     12          1           0        1.315698   -2.099000    0.000000
 ---------------------------------------------------------------------

 SCF Done:  E(RHF) =  -230.750364437     A.U. after   12 cycles
 E2 =    -0.8287014426D+00 EUMP2 =    -0.23157906587977D+03

 Alpha  occ. eigenvalues --  -11.23953 -11.23896 -11.23896 -11.23773 -11.23773
 Alpha  occ. eigenvalues --  -11.23713  -1.15214  -1.01677  -1.01677  -0.82579
 Alpha  occ. eigenvalues --   -0.82579  -0.71255  -0.64368  -0.61956  -0.58960
 Alpha  occ. eigenvalues --   -0.58959  -0.50193  -0.49456  -0.49455  -0.33725
 Alpha  occ. eigenvalues --   -0.33725
 Alpha virt. eigenvalues --    0.04209   0.04894   0.04894   0.06631   0.06631
 Alpha virt. eigenvalues --    0.08814   0.10889   0.10889   0.12932   0.15260
 Alpha virt. eigenvalues --    0.15260   0.15775   0.16261   0.17962   0.17962

 Mulliken charges:
               1
     1  C   -0.178151
     2  C   -0.178110
     3  C   -0.178110
     4  C   -0.178151
     5  C   -0.178097
     6  C   -0.178097
     7  H    0.178121
     8  H    0.178117
     9  H    0.178117
    10  H    0.178121
    11  H    0.178119
    12  H    0.178119
 Sum of Mulliken charges =  -0.00000

 Dipole moment (field-independent basis, Debye):
    X=              0.0000    Y=             -0.0000    Z=             -0.0000  Tot=              0.0000
 Quadrupole moment (field-independent basis, Debye-Ang):
   XX=            -32.5979   YY=            -32.5985   ZZ=            -40.8211
   XY=              0.0000   XZ=             -0.0000   YZ=             -0.0000

 Normal termination of Gaussian 16 at Wed Feb 12 15:46:49 2025.
