 Gaussian 09, Revision A.02,
 Gaussian 09:  EM64L-G09RevA.02 11-Jun-2009

 -----------------------------
 #P MP2/6-311++G** DENSITY=MP2
 -----------------------------

 ----
 X=CN
 ----
 Symbolic Z-matrix:
 Charge =  0 Multiplicity = 1

                         Standard orientation:
 ---------------------------------------------------------------------
 Center     Atomic      Atomic             Coordinates (Angstroms)
 Number     Number       Type             X           Y           Z
 ---------------------------------------------------------------------
      1          6           0        1.209094   -1.480487    0.000000
      2          6           0        1.215157   -0.090122    0.000000
      3          6           0        0.000000    0.610344    0.000000
      4          6           0       -1.214876   -0.090665    0.000000
      5          6           0       -1.208191   -1.481008    0.000000
      6          6           0        0.000612   -2.176651    0.000000
      7          6           0       -0.000450    2.042515    0.000000
      8          1           0       -2.148770    0.457519    0.000000
      9          1           0       -2.147126   -2.021841    0.000000
     10          1           0        0.000833   -3.260477    0.000000
     11          1           0        2.148278   -2.020884    0.000000
     12          1           0        2.148829    0.458443    0.000000
     13          7           0       -0.001445    3.197669    0.000000
 ---------------------------------------------------------------------

 SCF Done:  E(RHF) =  -322.508911839     A.U. after   17 cycles
 E2 =    -0.1112890103D+01 EUMP2 =    -0.32362180194196D+03

 The electronic state is 1-A'.
 Alpha  occ. eigenvalues --  -15.57665 -11.29480 -11.28066 -11.27547 -11.27542
 Alpha  occ. eigenvalues --  -11.27038 -11.26499 -11.26485  -1.23040  -1.18569
 Alpha  occ. eigenvalues --   -1.06548  -1.05003  -0.89047  -0.86122  -0.76822
 Alpha  occ. eigenvalues --   -0.70205  -0.66360  -0.63937  -0.62098  -0.56782
 Alpha  occ. eigenvalues --   -0.55489  -0.53789  -0.53230  -0.48402  -0.47052
 Alpha  occ. eigenvalues --   -0.36723  -0.35964
 Alpha virt. eigenvalues --    0.03082   0.04194   0.04879   0.06246   0.06550
 Alpha virt. eigenvalues --    0.07061   0.08675   0.10107   0.10976   0.12273
 Alpha virt. eigenvalues --    0.12592   0.13822   0.13955   0.14890   0.16547

 Mulliken atomic charges:
              1
     1  C    0.266151
     2  C   -1.023348
     3  C    2.708198
     4  C   -1.022042
     5  C    0.265698
     6  C   -0.564153
     7  C   -1.419444
     8  H    0.189343
     9  H    0.208747
    10  H    0.192447
    11  H    0.208752
    12  H    0.189278
    13  N   -0.199627
 Sum of Mulliken atomic charges =   0.00000

 Dipole moment (field-independent basis, Debye):
    X=              0.0021    Y=             -4.4297    Z=              0.0000  Tot=              4.4297
 Quadrupole moment (field-independent basis, Debye-Ang):
   XX=            -40.3758   YY=            -56.9224   ZZ=            -50.0007
   XY=              0.0078   XZ=              0.0000   YZ=              0.0000

 Normal termination of Gaussian 09 at Fri Dec  3 14:25:52 2021.
