 Gaussian 09, Revision A.02,
 Gaussian 09:  EM64L-G09RevA.02 11-Jun-2009

 -----------------------------
 #P MP2/6-311++G** DENSITY=MP2
 -----------------------------

 --------
 Chair-15
 --------
 Symbolic Z-matrix:
 Charge =  0 Multiplicity = 1

                         Standard orientation:
 ---------------------------------------------------------------------
 Center     Atomic      Atomic             Coordinates (Angstroms)
 Number     Number       Type             X           Y           Z
 ---------------------------------------------------------------------
      1          6           0        0.060690    1.383503    0.000000
      2          6           0       -0.060690    0.696344    1.209988
      3          6           0        0.060690   -0.696344    1.209988
      4          6           0       -0.060690   -1.383503    0.000000
      5          6           0        0.060690   -0.696344   -1.209988
      6          6           0       -0.060690    0.696344   -1.209988
      7          1           0        0.049943    2.468881    0.000000
      8          1           0       -0.048003    1.243913    2.146342
      9          1           0        0.048003   -1.243913    2.146342
     10          1           0       -0.049943   -2.468881    0.000000
     11          1           0        0.048003   -1.243913   -2.146342
     12          1           0       -0.048003    1.243913   -2.146342
 ---------------------------------------------------------------------

 SCF Done:  E(RHF) =  -230.743900885     A.U. after   11 cycles
 E2 =    -0.8326206902D+00 EUMP2 =    -0.23157652157485D+03

 The electronic state is 1-AG.
 Alpha  occ. eigenvalues --  -11.23992 -11.23953 -11.23915 -11.23832 -11.23782
 Alpha  occ. eigenvalues --  -11.23744  -1.15248  -1.01651  -1.01528  -0.82486
 Alpha  occ. eigenvalues --   -0.82317  -0.71026  -0.64478  -0.61687  -0.59037
 Alpha  occ. eigenvalues --   -0.58708  -0.50175  -0.49741  -0.49394  -0.33559
 Alpha  occ. eigenvalues --   -0.33484
 Alpha virt. eigenvalues --    0.04208   0.04910   0.04919   0.06671   0.06681
 Alpha virt. eigenvalues --    0.09879   0.10649   0.10757   0.11086   0.13974
 Alpha virt. eigenvalues --    0.15080   0.15107   0.16297   0.18209   0.18256

 Mulliken atomic charges:
              1
     1  C   -0.168572
     2  C   -0.175644
     3  C   -0.175644
     4  C   -0.168572
     5  C   -0.175644
     6  C   -0.175644
     7  H    0.172182
     8  H    0.173839
     9  H    0.173839
    10  H    0.172182
    11  H    0.173839
    12  H    0.173839
 Sum of Mulliken atomic charges =   0.00000

 Dipole moment (field-independent basis, Debye):
    X=              0.0000    Y=              0.0000    Z=              0.0000  Tot=              0.0000
 Quadrupole moment (field-independent basis, Debye-Ang):
   XX=            -40.8365   YY=            -32.7447   ZZ=            -32.5913
   XY=              0.0029   XZ=              0.0000   YZ=              0.0000

 Normal termination of Gaussian 09 at Fri Dec  3 15:09:17 2021.
