 Gaussian 16, Revision A.03,
 Gaussian 16:  ES64L-G16RevA.03 25-Dec-2016

 ------------------------------------
 #P MP2/6-311++G** nosymm Density=MP2
 ------------------------------------

 --------
 Chair-15
 --------
 Symbolic Z-matrix:
 Charge =  0 Multiplicity = 1

                          Input orientation:
 ---------------------------------------------------------------------
 Center     Atomic      Atomic             Coordinates (Angstroms)
 Number     Number       Type             X           Y           Z
 ---------------------------------------------------------------------
      1          6           0        1.383503    0.000000    0.060690
      2          6           0        0.696344    1.209988   -0.060690
      3          6           0       -0.696344    1.209988    0.060690
      4          6           0       -1.383503    0.000000   -0.060690
      5          6           0       -0.696344   -1.209988    0.060690
      6          6           0        0.696344   -1.209988   -0.060690
      7          1           0        2.468881    0.000000    0.049943
      8          1           0        1.243913    2.146342   -0.048003
      9          1           0       -1.243913    2.146342    0.048003
     10          1           0       -2.468881    0.000000   -0.049943
     11          1           0       -1.243913   -2.146342    0.048003
     12          1           0        1.243913   -2.146342   -0.048003
 ---------------------------------------------------------------------

 SCF Done:  E(RHF) =  -230.743900870     A.U. after   12 cycles
 E2 =    -0.8326207155D+00 EUMP2 =    -0.23157652158598D+03

 Alpha  occ. eigenvalues --  -11.23992 -11.23953 -11.23915 -11.23832 -11.23782
 Alpha  occ. eigenvalues --  -11.23744  -1.15248  -1.01651  -1.01528  -0.82486
 Alpha  occ. eigenvalues --   -0.82317  -0.71026  -0.64478  -0.61687  -0.59037
 Alpha  occ. eigenvalues --   -0.58708  -0.50175  -0.49741  -0.49394  -0.33559
 Alpha  occ. eigenvalues --   -0.33484
 Alpha virt. eigenvalues --    0.04208   0.04910   0.04919   0.06671   0.06681
 Alpha virt. eigenvalues --    0.09879   0.10649   0.10757   0.11086   0.13974
 Alpha virt. eigenvalues --    0.15080   0.15107   0.16297   0.18209   0.18256

 Mulliken charges:
               1
     1  C   -0.168572
     2  C   -0.175644
     3  C   -0.175644
     4  C   -0.168572
     5  C   -0.175644
     6  C   -0.175644
     7  H    0.172182
     8  H    0.173839
     9  H    0.173839
    10  H    0.172182
    11  H    0.173839
    12  H    0.173839
 Sum of Mulliken charges =  -0.00000

 Dipole moment (field-independent basis, Debye):
    X=              0.0000    Y=              0.0000    Z=             -0.0000  Tot=              0.0000
 Quadrupole moment (field-independent basis, Debye-Ang):
   XX=            -32.7447   YY=            -32.5913   ZZ=            -40.8365
   XY=             -0.0000   XZ=              0.0029   YZ=              0.0000

 Normal termination of Gaussian 16 at Wed Feb 12 16:23:26 2025.
