 Gaussian 09, Revision A.02,
 Gaussian 09:  EM64L-G09RevA.02 11-Jun-2009

 -----------------------------
 #P MP2/6-311++G** DENSITY=MP2
 -----------------------------

 -------
 Hepta-O
 -------
 Symbolic Z-matrix:
 Charge = -1 Multiplicity = 1

                         Standard orientation:
 ---------------------------------------------------------------------
 Center     Atomic      Atomic             Coordinates (Angstroms)
 Number     Number       Type             X           Y           Z
 ---------------------------------------------------------------------
      1          6           0        0.674071   -1.873641    0.000000
      2          6           0        1.580627   -0.718739    0.000000
      3          6           0       -0.674082   -1.873542    0.000000
      4          6           0       -1.580593   -0.718697    0.000000
      5          6           0       -1.267649    0.605334    0.000000
      6          6           0        0.000000    1.331685    0.000000
      7          6           0        1.267734    0.605251    0.000000
      8          1           0       -2.130883    1.271808    0.000000
      9          1           0        2.130962    1.271749    0.000000
     10          1           0        2.639591   -0.970998    0.000000
     11          1           0        1.164683   -2.846540    0.000000
     12          1           0       -1.164756   -2.846430    0.000000
     13          1           0       -2.639558   -0.970915    0.000000
     14          5           0       -0.000009    2.811642    0.000000
     15          1           0       -1.034012    3.443412    0.000000
     16          1           0        1.033375    3.443796    0.000000
 ---------------------------------------------------------------------

 SCF Done:  E(RHF) =  -294.425500194     A.U. after   15 cycles
 E2 =    -0.1077361147D+01 EUMP2 =    -0.29550286134098D+03

 The electronic state is 1-A'.
 Alpha  occ. eigenvalues --  -11.08370 -11.08370 -11.08345 -11.08188 -11.05630
 Alpha  occ. eigenvalues --  -11.05628 -11.01191  -7.37139  -0.95288  -0.87198
 Alpha  occ. eigenvalues --   -0.86702  -0.72747  -0.70230  -0.55079  -0.54304
 Alpha  occ. eigenvalues --   -0.53461  -0.47422  -0.44220  -0.40430  -0.37835
 Alpha  occ. eigenvalues --   -0.36605  -0.32129  -0.30038  -0.28789  -0.27404
 Alpha  occ. eigenvalues --   -0.21638  -0.21482  -0.04735
 Alpha virt. eigenvalues --    0.13701   0.14245   0.15155   0.16010   0.16560
 Alpha virt. eigenvalues --    0.17882   0.18824   0.19002   0.20911   0.21427
 Alpha virt. eigenvalues --    0.22036   0.24847   0.24854   0.25934   0.27527

 Mulliken atomic charges:
              1
     1  C   -0.175637
     2  C   -0.507942
     3  C   -0.175535
     4  C   -0.508064
     5  C    0.138701
     6  C   -0.205596
     7  C    0.138891
     8  H    0.190909
     9  H    0.190907
    10  H    0.120013
    11  H    0.120447
    12  H    0.120422
    13  H    0.120026
    14  B   -0.273620
    15  H   -0.146986
    16  H   -0.146938
 Sum of Mulliken atomic charges =  -1.00000

 Dipole moment (field-independent basis, Debye):
    X=              0.0012    Y=             -5.9649    Z=              0.0000  Tot=              5.9649
 Quadrupole moment (field-independent basis, Debye-Ang):
   XX=            -58.1739   YY=            -80.9235   ZZ=            -60.6148
   XY=              0.0035   XZ=              0.0000   YZ=              0.0000

 Normal termination of Gaussian 09 at Tue Dec 21 19:11:25 2021.
