 Gaussian 09, Revision A.02,
 Gaussian 09:  EM64L-G09RevA.02 11-Jun-2009

 -----------------------------
 #P MP2/6-311++G** DENSITY=MP2
 -----------------------------

 ---------
 Pyramid-5
 ---------
 Symbolic Z-matrix:
 Charge =  0 Multiplicity = 1

                         Standard orientation:
 ---------------------------------------------------------------------
 Center     Atomic      Atomic             Coordinates (Angstroms)
 Number     Number       Type             X           Y           Z
 ---------------------------------------------------------------------
      1          6           0       -1.207935    0.697413   -0.013488
      2          6           0       -1.207935   -0.697413   -0.013488
      3          6           0        0.000000   -1.394877   -0.013531
      4          6           0        1.207935   -0.697413   -0.013488
      5          6           0        1.207935    0.697413   -0.013488
      6          6           0        0.000000    1.394877   -0.013531
      7          1           0       -2.143570    1.237573    0.081031
      8          1           0       -2.143570   -1.237573    0.081031
      9          1           0        0.000000   -2.475238    0.080989
     10          1           0        2.143570   -1.237573    0.081031
     11          1           0        2.143570    1.237573    0.081031
     12          1           0        0.000000    2.475238    0.080989
 ---------------------------------------------------------------------

 SCF Done:  E(RHF) =  -230.754181180     A.U. after   10 cycles
 E2 =    -0.8283585314D+00 EUMP2 =    -0.23158253971114D+03

 The electronic state is 1-A1.
 Alpha  occ. eigenvalues --  -11.23929 -11.23872 -11.23872 -11.23749 -11.23749
 Alpha  occ. eigenvalues --  -11.23689  -1.15229  -1.01654  -1.01654  -0.82528
 Alpha  occ. eigenvalues --   -0.82528  -0.71063  -0.64414  -0.62084  -0.58949
 Alpha  occ. eigenvalues --   -0.58947  -0.50205  -0.49593  -0.49591  -0.33708
 Alpha  occ. eigenvalues --   -0.33708
 Alpha virt. eigenvalues --    0.04223   0.04936   0.04936   0.06665   0.06665
 Alpha virt. eigenvalues --    0.09778   0.10863   0.10864   0.12867   0.15175
 Alpha virt. eigenvalues --    0.15175   0.15857   0.16291   0.18137   0.18137

 Mulliken atomic charges:
              1
     1  C   -0.166848
     2  C   -0.166848
     3  C   -0.176525
     4  C   -0.166848
     5  C   -0.166848
     6  C   -0.176525
     7  H    0.170466
     8  H    0.170466
     9  H    0.169288
    10  H    0.170466
    11  H    0.170466
    12  H    0.169288
 Sum of Mulliken atomic charges =   0.00000

 Dipole moment (field-independent basis, Debye):
    X=              0.0000    Y=              0.0000    Z=              0.3881  Tot=              0.3881
 Quadrupole moment (field-independent basis, Debye-Ang):
   XX=            -32.6318   YY=            -32.6305   ZZ=            -40.7669
   XY=              0.0000   XZ=              0.0000   YZ=              0.0000

 Normal termination of Gaussian 09 at Fri Dec  3 12:20:51 2021.
