 Gaussian 09, Revision A.02,
 Gaussian 09:  EM64L-G09RevA.02 11-Jun-2009

 -----------------------------
 #P MP2/6-311++G** DENSITY=MP2
 -----------------------------

 ------
 X=OCH3
 ------
 Symbolic Z-matrix:
 Charge =  0 Multiplicity = 1

                         Standard orientation:
 ---------------------------------------------------------------------
 Center     Atomic      Atomic             Coordinates (Angstroms)
 Number     Number       Type             X           Y           Z
 ---------------------------------------------------------------------
      1          6           0       -0.891746   -2.126216    0.000000
      2          6           0        0.468600   -1.840275    0.000000
      3          6           0        0.925254   -0.519450    0.000000
      4          6           0        0.000000    0.527751    0.000000
      5          6           0       -1.371931    0.245310    0.000000
      6          6           0       -1.809324   -1.071731    0.000000
      7          8           0        0.332320    1.852754    0.000000
      8          6           0        1.707650    2.208356    0.000000
      9          1           0       -2.071031    1.072903    0.000000
     10          1           0       -2.873785   -1.278388    0.000000
     11          1           0       -1.236607   -3.153266    0.000000
     12          1           0        1.193112   -2.647148    0.000000
     13          1           0        1.989151   -0.324512    0.000000
     14          1           0        1.733202    3.296808    0.000000
     15          1           0        2.218193    1.834550    0.894252
     16          1           0        2.218193    1.834550   -0.894252
 ---------------------------------------------------------------------

 SCF Done:  E(RHF) =  -344.666743470     A.U. after   15 cycles
 E2 =    -0.1176478865D+01 EUMP2 =    -0.34584322233504D+03

 The electronic state is 1-A'.
 Alpha  occ. eigenvalues --  -20.58412 -11.30373 -11.28734 -11.24214 -11.24040
 Alpha  occ. eigenvalues --  -11.23386 -11.22899 -11.22836  -1.40944  -1.14871
 Alpha  occ. eigenvalues --   -1.02387  -1.01623  -0.94286  -0.83433  -0.80891
 Alpha  occ. eigenvalues --   -0.72227  -0.66585  -0.66278  -0.65420  -0.62083
 Alpha  occ. eigenvalues --   -0.59129  -0.57819  -0.52675  -0.52638  -0.51409
 Alpha  occ. eigenvalues --   -0.48256  -0.46778  -0.34066  -0.31241
 Alpha virt. eigenvalues --    0.03786   0.04714   0.05040   0.06338   0.06700
 Alpha virt. eigenvalues --    0.07386   0.08395   0.10104   0.10916   0.11623
 Alpha virt. eigenvalues --    0.12481   0.13862   0.14154   0.15007   0.17013

 Mulliken atomic charges:
              1
     1  C   -0.187530
     2  C   -0.450698
     3  C    0.663182
     4  C   -0.659280
     5  C   -0.009472
     6  C   -0.310322
     7  O   -0.153417
     8  C   -0.365433
     9  H    0.223771
    10  H    0.185978
    11  H    0.174441
    12  H    0.185109
    13  H    0.208372
    14  H    0.192337
    15  H    0.151481
    16  H    0.151481
 Sum of Mulliken atomic charges =   0.00000

 Dipole moment (field-independent basis, Debye):
    X=              1.3901    Y=              0.0477    Z=              0.0000  Tot=              1.3909
 Quadrupole moment (field-independent basis, Debye-Ang):
   XX=            -41.7074   YY=            -45.3978   ZZ=            -52.5010
   XY=              3.3217   XZ=              0.0000   YZ=              0.0000

 Normal termination of Gaussian 09 at Fri Dec  3 14:23:42 2021.
