 Gaussian 09, Revision A.02,
 Gaussian 09:  EM64L-G09RevA.02 11-Jun-2009

 -----------------------------
 #P MP2/6-311++G** DENSITY=MP2
 -----------------------------

 ---------
 Hepta-CH2
 ---------
 Symbolic Z-matrix:
 Charge =  0 Multiplicity = 1

                         Standard orientation:
 ---------------------------------------------------------------------
 Center     Atomic      Atomic             Coordinates (Angstroms)
 Number     Number       Type             X           Y           Z
 ---------------------------------------------------------------------
      1          6           0        0.676294   -1.889034    0.000000
      2          6           0        1.564903   -0.746685    0.000000
      3          6           0       -0.675913   -1.889272    0.000000
      4          6           0       -1.564793   -0.747065    0.000000
      5          6           0       -1.281978    0.574934    0.000000
      6          6           0        0.000000    1.284964    0.000000
      7          6           0        1.281919    0.575328    0.000000
      8          1           0       -2.141778    1.240127    0.000000
      9          1           0        2.141798    1.240404    0.000000
     10          1           0        2.621465   -0.999615    0.000000
     11          1           0        1.169078   -2.856600    0.000000
     12          1           0       -1.168393   -2.856985    0.000000
     13          1           0       -2.621317   -1.000132    0.000000
     14          6           0       -0.000382    2.640357    0.000000
     15          1           0        0.923143    3.206099    0.000000
     16          1           0       -0.924302    3.205544    0.000000
 ---------------------------------------------------------------------

 SCF Done:  E(RHF) =  -307.606947349     A.U. after   15 cycles
 E2 =    -0.1104398205D+01 EUMP2 =    -0.30871134555378D+03

 The electronic state is 1-A'.
 Alpha  occ. eigenvalues --  -11.25764 -11.25012 -11.25007 -11.24675 -11.24583
 Alpha  occ. eigenvalues --  -11.24541 -11.24480 -11.22264  -1.14328  -1.07531
 Alpha  occ. eigenvalues --   -1.05484  -0.96568  -0.88458  -0.83401  -0.73079
 Alpha  occ. eigenvalues --   -0.71817  -0.69271  -0.62154  -0.60955  -0.58256
 Alpha  occ. eigenvalues --   -0.56759  -0.52276  -0.51458  -0.50217  -0.48094
 Alpha  occ. eigenvalues --   -0.41099  -0.38906  -0.26408
 Alpha virt. eigenvalues --    0.03837   0.04626   0.04900   0.05846   0.06240
 Alpha virt. eigenvalues --    0.06433   0.08355   0.08372   0.08758   0.11136
 Alpha virt. eigenvalues --    0.12696   0.13474   0.14355   0.14906   0.15967

 Mulliken atomic charges:
              1
     1  C   -0.281503
     2  C   -0.128151
     3  C   -0.281798
     4  C   -0.128396
     5  C   -0.819058
     6  C    1.574826
     7  C   -0.818732
     8  H    0.146225
     9  H    0.146300
    10  H    0.195328
    11  H    0.184144
    12  H    0.184144
    13  H    0.195359
    14  C   -0.491282
    15  H    0.161283
    16  H    0.161311
 Sum of Mulliken atomic charges =   0.00000

 Dipole moment (field-independent basis, Debye):
    X=              0.0002    Y=             -0.6964    Z=              0.0000  Tot=              0.6964
 Quadrupole moment (field-independent basis, Debye-Ang):
   XX=            -43.1230   YY=            -45.1047   ZZ=            -54.4801
   XY=              0.0003   XZ=              0.0000   YZ=              0.0000

 Normal termination of Gaussian 09 at Wed Dec 22 17:40:00 2021.
