 Gaussian 09, Revision A.02,
 Gaussian 09:  EM64L-G09RevA.02 11-Jun-2009

 -----------------------------
 #P MP2/6-311++G** DENSITY=MP2
 -----------------------------

 -----
 X=NH2
 -----
 Symbolic Z-matrix:
 Charge =  0 Multiplicity = 1

                         Standard orientation:
 ---------------------------------------------------------------------
 Center     Atomic      Atomic             Coordinates (Angstroms)
 Number     Number       Type             X           Y           Z
 ---------------------------------------------------------------------
      1          6           0        1.170643    1.200836    0.003313
      2          6           0       -0.220576    1.206375   -0.004820
      3          6           0       -0.936894    0.000140   -0.007529
      4          6           0       -0.220602   -1.206208   -0.004761
      5          6           0        1.170605   -1.200952    0.003338
      6          6           0        1.879603   -0.000076    0.007653
      7          7           0       -2.333441   -0.000002   -0.072364
      8          1           0       -0.760023   -2.148285   -0.013819
      9          1           0        1.703683   -2.145555    0.006840
     10          1           0        2.962912    0.000039    0.014557
     11          1           0        1.703933    2.145321    0.006657
     12          1           0       -0.759799    2.148559   -0.013725
     13          1           0       -2.786400   -0.838067    0.260834
     14          1           0       -2.786907    0.837318    0.262043
 ---------------------------------------------------------------------

 SCF Done:  E(RHF) =  -285.804396198     A.U. after   14 cycles
 E2 =    -0.1011238366D+01 EUMP2 =    -0.28681563456320D+03

 The electronic state is 1-A.
 Alpha  occ. eigenvalues --  -15.56614 -11.28208 -11.23753 -11.23750 -11.22612
 Alpha  occ. eigenvalues --  -11.22610 -11.22139  -1.22518  -1.12806  -1.01343
 Alpha  occ. eigenvalues --   -0.98746  -0.83270  -0.81466  -0.70725  -0.68779
 Alpha  occ. eigenvalues --   -0.65755  -0.60009  -0.59502  -0.58295  -0.53346
 Alpha  occ. eigenvalues --   -0.50885  -0.48983  -0.44739  -0.33687  -0.29432
 Alpha virt. eigenvalues --    0.03990   0.04859   0.04884   0.06538   0.06597
 Alpha virt. eigenvalues --    0.09457   0.10206   0.11169   0.12014   0.12939
 Alpha virt. eigenvalues --    0.13876   0.15426   0.16259   0.17860   0.17897

 Mulliken atomic charges:
              1
     1  C   -0.166064
     2  C   -0.086912
     3  C   -0.077147
     4  C   -0.086100
     5  C   -0.166217
     6  C   -0.373500
     7  N   -0.369443
     8  H    0.150843
     9  H    0.184551
    10  H    0.158599
    11  H    0.184546
    12  H    0.150923
    13  H    0.247959
    14  H    0.247962
 Sum of Mulliken atomic charges =   0.00000

 Dipole moment (field-independent basis, Debye):
    X=             -1.1356    Y=             -0.0007    Z=              0.9771  Tot=              1.4981
 Quadrupole moment (field-independent basis, Debye-Ang):
   XX=            -36.2506   YY=            -37.4068   ZZ=            -48.0933
   XY=              0.0019   XZ=             -3.1999   YZ=              0.0019

 Normal termination of Gaussian 09 at Tue Dec  7 11:50:36 2021.
