 Gaussian 09, Revision A.02,
 Gaussian 09:  EM64L-G09RevA.02 11-Jun-2009

 ------------------------------------------------------
 #P MP2/6-311++G** DENSITY=MP2 IRC=(CalcFC,MaxCycle=50)
 ------------------------------------------------------

 ----
 14-H
 ----
 Symbolic Z-matrix:
 Charge =  0 Multiplicity = 1

 SCF Done:  E(RHF) =  -232.940963748     A.U. after   14 cycles
 E2 =    -0.9084881880D+00 EUMP2 =    -0.23384945193576D+03
 E2 =    -0.9084881880D+00 EUMP2 =    -0.23384945193576D+03
 SCF Done:  E(RHF) =  -232.939860788     A.U. after   12 cycles
 E2 =    -0.9109529184D+00 EUMP2 =    -0.23385081370625D+03
 SCF Done:  E(RHF) =  -232.939011752     A.U. after   11 cycles
 E2 =    -0.9119595087D+00 EUMP2 =    -0.23385097126047D+03
 SCF Done:  E(RHF) =  -232.939177720     A.U. after   10 cycles
 E2 =    -0.9117281261D+00 EUMP2 =    -0.23385090584640D+03
 SCF Done:  E(RHF) =  -232.939151381     A.U. after    9 cycles
 E2 =    -0.9116936015D+00 EUMP2 =    -0.23385084498239D+03
 SCF Done:  E(RHF) =  -232.939185659     A.U. after    9 cycles
 E2 =    -0.9115974680D+00 EUMP2 =    -0.23385078312659D+03
 SCF Done:  E(RHF) =  -232.939208599     A.U. after    9 cycles
 E2 =    -0.9115140058D+00 EUMP2 =    -0.23385072260462D+03
 SCF Done:  E(RHF) =  -232.939235309     A.U. after    9 cycles
 E2 =    -0.9114276235D+00 EUMP2 =    -0.23385066293286D+03
 SCF Done:  E(RHF) =  -232.939266595     A.U. after    9 cycles
 E2 =    -0.9113375051D+00 EUMP2 =    -0.23385060410042D+03
 SCF Done:  E(RHF) =  -232.939301209     A.U. after    9 cycles
 E2 =    -0.9112449782D+00 EUMP2 =    -0.23385054618696D+03
 E2 =    -0.9111496116D+00 EUMP2 =    -0.23385048920853D+03
 E2 =    -0.9110515315D+00 EUMP2 =    -0.23385043319013D+03
 E2 =    -0.9109507217D+00 EUMP2 =    -0.23385037819316D+03
 E2 =    -0.9108474287D+00 EUMP2 =    -0.23385032425609D+03
 E2 =    -0.9107417582D+00 EUMP2 =    -0.23385027142469D+03
 E2 =    -0.9106339062D+00 EUMP2 =    -0.23385021975025D+03
 E2 =    -0.9144726171D+00 EUMP2 =    -0.23385134894798D+03
 E2 =    -0.9133909255D+00 EUMP2 =    -0.23385181829310D+03
 E2 =    -0.9130444527D+00 EUMP2 =    -0.23385184403616D+03
 E2 =    -0.9099263997D+00 EUMP2 =    -0.23384987843622D+03
 E2 =    -0.9098881660D+00 EUMP2 =    -0.23384987000891D+03
 E2 =    -0.9137991536D+00 EUMP2 =    -0.23384991660816D+03
 E2 =    -0.9126616881D+00 EUMP2 =    -0.23385064280983D+03
 E2 =    -0.9121946474D+00 EUMP2 =    -0.23385071830806D+03
 E2 =    -0.9119908209D+00 EUMP2 =    -0.23385070798101D+03
 E2 =    -0.9118771473D+00 EUMP2 =    -0.23385068285007D+03
 E2 =    -0.9117973277D+00 EUMP2 =    -0.23385065453365D+03
 E2 =    -0.9117316567D+00 EUMP2 =    -0.23385062587392D+03
 E2 =    -0.9116742229D+00 EUMP2 =    -0.23385059830347D+03
 SCF Done:  E(RHF) =  -232.938215504     A.U. after   12 cycles
 E2 =    -0.9135030280D+00 EUMP2 =    -0.23385171853203D+03
 SCF Done:  E(RHF) =  -232.938592548     A.U. after   11 cycles
 E2 =    -0.9132137798D+00 EUMP2 =    -0.23385180632763D+03
 SCF Done:  E(RHF) =  -232.939586858     A.U. after   12 cycles
 E2 =    -0.9137950439D+00 EUMP2 =    -0.23385338190242D+03
 SCF Done:  E(RHF) =  -232.939752999     A.U. after   10 cycles
 E2 =    -0.9136933176D+00 EUMP2 =    -0.23385344631679D+03
 SCF Done:  E(RHF) =  -232.942063364     A.U. after   12 cycles
 E2 =    -0.9134250091D+00 EUMP2 =    -0.23385548837264D+03
 SCF Done:  E(RHF) =  -232.942217168     A.U. after   10 cycles
 E2 =    -0.9133616540D+00 EUMP2 =    -0.23385557882226D+03
 SCF Done:  E(RHF) =  -232.945921724     A.U. after   12 cycles
 E2 =    -0.9122992277D+00 EUMP2 =    -0.23385822095142D+03
 SCF Done:  E(RHF) =  -232.946136172     A.U. after   10 cycles
 E2 =    -0.9122087579D+00 EUMP2 =    -0.23385834493001D+03
 SCF Done:  E(RHF) =  -232.951337414     A.U. after   11 cycles
 E2 =    -0.9104077699D+00 EUMP2 =    -0.23386174518427D+03
 SCF Done:  E(RHF) =  -232.951602310     A.U. after    9 cycles
 E2 =    -0.9103007141D+00 EUMP2 =    -0.23386190302361D+03

                          Input orientation:
 ---------------------------------------------------------------------
 Center     Atomic      Atomic             Coordinates (Angstroms)
 Number     Number       Type             X           Y           Z
 ---------------------------------------------------------------------
      1          6           0       -0.322696    1.371653    0.490241
      2          6           0       -0.323281   -1.370281    0.492258
      3          6           0       -1.279872    0.690292   -0.299483
      4          6           0       -1.280225   -0.689808   -0.298308
      5          6           0        1.463996    0.719007   -0.235608
      6          6           0        1.464620   -0.717569   -0.234229
      7          1           0       -0.340694    2.458548    0.481863
      8          1           0       -0.147190    0.946911    1.475885
      9          1           0       -0.341137   -2.457185    0.486028
     10          1           0       -0.146657   -0.943627    1.476945
     11          1           0       -1.799478    1.236022   -1.084594
     12          1           0       -1.800548   -1.237308   -1.081678
     13          1           0        2.138648    1.222705    0.450935
     14          1           0        1.346313    1.189996   -1.206091
     15          1           0        2.139314   -1.218484    0.454251
     16          1           0        1.347956   -1.190505   -1.203766
 ---------------------------------------------------------------------

 Alpha  occ. eigenvalues --  -11.23997 -11.23902 -11.23747 -11.23745 -11.22042
 Alpha  occ. eigenvalues --  -11.21909  -1.10111  -1.00973  -0.97069  -0.85158
 Alpha  occ. eigenvalues --   -0.79852  -0.70701  -0.67225  -0.63986  -0.58051
 Alpha  occ. eigenvalues --   -0.55955  -0.55201  -0.51983  -0.50533  -0.48784
 Alpha  occ. eigenvalues --   -0.47984  -0.33025  -0.30322
 Alpha virt. eigenvalues --    0.04475   0.05054   0.05439   0.06139   0.07182
 Alpha virt. eigenvalues --    0.07584   0.07628   0.08323   0.09780   0.11028
 Alpha virt. eigenvalues --    0.12689   0.13366   0.14460   0.16568   0.16912

 Mulliken atomic charges:
              1
     1  C   -0.434078
     2  C   -0.434455
     3  C   -0.029517
     4  C   -0.029701
     5  C   -0.332950
     6  C   -0.332808
     7  H    0.183702
     8  H    0.148127
     9  H    0.183654
    10  H    0.147939
    11  H    0.142907
    12  H    0.142952
    13  H    0.165585
    14  H    0.156580
    15  H    0.165410
    16  H    0.156654
 Sum of Mulliken atomic charges =   0.00000

 Dipole moment (field-independent basis, Debye):
    X=              0.7448    Y=              0.0007    Z=             -0.0779  Tot=              0.7489
 Quadrupole moment (field-independent basis, Debye-Ang):
   XX=            -42.6448   YY=            -37.7013   ZZ=            -38.7491
   XY=              0.0068   XZ=              2.5981   YZ=             -0.0006

  Exact polarizability:   0.000   0.000   0.000   0.000   0.000   0.000
 Approx polarizability:  87.423   0.002  78.296  -2.973  -0.021  58.139

 Normal termination of Gaussian 09 at Tue Dec  7 14:39:20 2021.
