 Gaussian 09, Revision A.02,
 Gaussian 09:  EM64L-G09RevA.02 11-Jun-2009

 ------------------------------------------
 #P MP2/6-311++G** IRC=(CalcFC,MaxCycle=50)
 ------------------------------------------

 ----
 14-H
 ----
 Symbolic Z-matrix:
 Charge =  0 Multiplicity = 1

 SCF Done:  E(RHF) =  -232.940963748     A.U. after   14 cycles
 E2 =    -0.9084881880D+00 EUMP2 =    -0.23384945193576D+03
 E2 =    -0.9084881880D+00 EUMP2 =    -0.23384945193577D+03
 SCF Done:  E(RHF) =  -232.939860788     A.U. after   12 cycles
 E2 =    -0.9109529184D+00 EUMP2 =    -0.23385081370622D+03
 SCF Done:  E(RHF) =  -232.939011752     A.U. after   11 cycles
 E2 =    -0.9119595087D+00 EUMP2 =    -0.23385097126043D+03
 SCF Done:  E(RHF) =  -232.939177721     A.U. after   10 cycles
 E2 =    -0.9117281253D+00 EUMP2 =    -0.23385090584642D+03
 SCF Done:  E(RHF) =  -232.939151379     A.U. after    9 cycles
 E2 =    -0.9116936031D+00 EUMP2 =    -0.23385084498241D+03
 SCF Done:  E(RHF) =  -232.939185659     A.U. after    9 cycles
 E2 =    -0.9115974677D+00 EUMP2 =    -0.23385078312646D+03
 SCF Done:  E(RHF) =  -232.939208599     A.U. after    9 cycles
 E2 =    -0.9115140052D+00 EUMP2 =    -0.23385072260448D+03
 SCF Done:  E(RHF) =  -232.939235309     A.U. after    9 cycles
 E2 =    -0.9114276237D+00 EUMP2 =    -0.23385066293270D+03
 SCF Done:  E(RHF) =  -232.939266596     A.U. after    9 cycles
 E2 =    -0.9113375045D+00 EUMP2 =    -0.23385060410023D+03
 SCF Done:  E(RHF) =  -232.939301209     A.U. after    9 cycles
 E2 =    -0.9112449779D+00 EUMP2 =    -0.23385054618679D+03
 E2 =    -0.9111496112D+00 EUMP2 =    -0.23385048920831D+03
 E2 =    -0.9110515313D+00 EUMP2 =    -0.23385043318988D+03
 E2 =    -0.9109507215D+00 EUMP2 =    -0.23385037819284D+03
 E2 =    -0.9108474278D+00 EUMP2 =    -0.23385032425573D+03
 E2 =    -0.9107417573D+00 EUMP2 =    -0.23385027142439D+03
 E2 =    -0.9106339057D+00 EUMP2 =    -0.23385021975007D+03
 E2 =    -0.9144726215D+00 EUMP2 =    -0.23385134894568D+03
 E2 =    -0.9133909272D+00 EUMP2 =    -0.23385181829237D+03
 E2 =    -0.9130444535D+00 EUMP2 =    -0.23385184403544D+03
 E2 =    -0.9100670573D+00 EUMP2 =    -0.23384989012292D+03
 E2 =    -0.9100073947D+00 EUMP2 =    -0.23384988056799D+03
 E2 =    -0.9136799321D+00 EUMP2 =    -0.23384979343978D+03
 E2 =    -0.9126040167D+00 EUMP2 =    -0.23385055635385D+03
 E2 =    -0.9121060401D+00 EUMP2 =    -0.23385063014160D+03
 E2 =    -0.9119189169D+00 EUMP2 =    -0.23385062951271D+03
 E2 =    -0.9118153636D+00 EUMP2 =    -0.23385061599451D+03
 E2 =    -0.9117429609D+00 EUMP2 =    -0.23385059786128D+03
 E2 =    -0.9116840900D+00 EUMP2 =    -0.23385057822882D+03
 E2 =    -0.9116329427D+00 EUMP2 =    -0.23385055810650D+03
 SCF Done:  E(RHF) =  -232.938302276     A.U. after   12 cycles
 E2 =    -0.9133283101D+00 EUMP2 =    -0.23385163058578D+03
 SCF Done:  E(RHF) =  -232.938633803     A.U. after   11 cycles
 E2 =    -0.9130695180D+00 EUMP2 =    -0.23385170332092D+03
 SCF Done:  E(RHF) =  -232.939502572     A.U. after   12 cycles
 E2 =    -0.9136748257D+00 EUMP2 =    -0.23385317739727D+03
 SCF Done:  E(RHF) =  -232.939652760     A.U. after   10 cycles
 E2 =    -0.9135936464D+00 EUMP2 =    -0.23385324640655D+03
 SCF Done:  E(RHF) =  -232.941780969     A.U. after   12 cycles
 E2 =    -0.9133820749D+00 EUMP2 =    -0.23385516304435D+03
 SCF Done:  E(RHF) =  -232.941921100     A.U. after   10 cycles
 E2 =    -0.9133401171D+00 EUMP2 =    -0.23385526121718D+03
 SCF Done:  E(RHF) =  -232.945409359     A.U. after   12 cycles
 E2 =    -0.9123418092D+00 EUMP2 =    -0.23385775116804D+03
 SCF Done:  E(RHF) =  -232.945606962     A.U. after   10 cycles
 E2 =    -0.9122774660D+00 EUMP2 =    -0.23385788442820D+03
 SCF Done:  E(RHF) =  -232.950551640     A.U. after   11 cycles
 E2 =    -0.9105513264D+00 EUMP2 =    -0.23386110296624D+03
 SCF Done:  E(RHF) =  -232.950807067     A.U. after    9 cycles
 E2 =    -0.9104664826D+00 EUMP2 =    -0.23386127354987D+03

                          Input orientation:
 ---------------------------------------------------------------------
 Center     Atomic      Atomic             Coordinates (Angstroms)
 Number     Number       Type             X           Y           Z
 ---------------------------------------------------------------------
      1          6           0       -0.328046    1.371459    0.494262
      2          6           0       -0.329658   -1.370632    0.494922
      3          6           0       -1.277394    0.690865   -0.301432
      4          6           0       -1.278317   -0.689343   -0.300910
      5          6           0        1.464115    0.716411   -0.228824
      6          6           0        1.462727   -0.717544   -0.229110
      7          1           0       -0.343462    2.457511    0.484359
      8          1           0       -0.157727    0.948638    1.480825
      9          1           0       -0.346951   -2.456654    0.485534
     10          1           0       -0.159101   -0.947666    1.481435
     11          1           0       -1.783276    1.235178   -1.096171
     12          1           0       -1.785785   -1.233513   -1.094679
     13          1           0        2.136818    1.216745    0.461704
     14          1           0        1.347152    1.193318   -1.195245
     15          1           0        2.134224   -1.220163    0.460795
     16          1           0        1.342949   -1.193806   -1.195498
 ---------------------------------------------------------------------

 Alpha  occ. eigenvalues --  -11.23959 -11.23863 -11.23725 -11.23721 -11.22007
 Alpha  occ. eigenvalues --  -11.21874  -1.10164  -1.01026  -0.97141  -0.85177
 Alpha  occ. eigenvalues --   -0.79862  -0.70740  -0.67260  -0.64005  -0.58123
 Alpha  occ. eigenvalues --   -0.56024  -0.55259  -0.51970  -0.50521  -0.48820
 Alpha  occ. eigenvalues --   -0.48023  -0.32963  -0.30300
 Alpha virt. eigenvalues --    0.04476   0.05056   0.05439   0.06141   0.07194
 Alpha virt. eigenvalues --    0.07578   0.07632   0.08326   0.09785   0.11015
 Alpha virt. eigenvalues --    0.12651   0.13375   0.14423   0.16574   0.16882

 Mulliken atomic charges:
              1
     1  C   -0.416701
     2  C   -0.417142
     3  C   -0.036684
     4  C   -0.036966
     5  C   -0.310621
     6  C   -0.310122
     7  H    0.174525
     8  H    0.141415
     9  H    0.174512
    10  H    0.141477
    11  H    0.146748
    12  H    0.146916
    13  H    0.152588
    14  H    0.148708
    15  H    0.152777
    16  H    0.148571
 Sum of Mulliken atomic charges =   0.00000

 Dipole moment (field-independent basis, Debye):
    X=              0.8414    Y=             -0.0014    Z=             -0.0876  Tot=              0.8459
 Quadrupole moment (field-independent basis, Debye-Ang):
   XX=            -42.6341   YY=            -36.9978   ZZ=            -38.1966
   XY=              0.0075   XZ=              2.7924   YZ=             -0.0033

  Exact polarizability:   0.000   0.000   0.000   0.000   0.000   0.000
 Approx polarizability:  87.725   0.002  78.440  -2.874  -0.005  58.119

 Normal termination of Gaussian 09 at Tue Dec  7 19:22:08 2021.
