 Gaussian 09, Revision A.02,
 Gaussian 09:  EM64L-G09RevA.02 11-Jun-2009

 -----------------------------
 #P MP2/6-311++G** DENSITY=MP2
 -----------------------------

 -----
 X=CHO
 -----
 Symbolic Z-matrix:
 Charge =  0 Multiplicity = 1

                         Standard orientation:
 ---------------------------------------------------------------------
 Center     Atomic      Atomic             Coordinates (Angstroms)
 Number     Number       Type             X           Y           Z
 ---------------------------------------------------------------------
      1          6           0        1.614935   -1.230301    0.000000
      2          6           0        1.327875    0.132276    0.000000
      3          6           0        0.000000    0.572246    0.000000
      4          6           0       -1.044507   -0.362437    0.000000
      5          6           0       -0.757154   -1.720847    0.000000
      6          6           0        0.571914   -2.155168    0.000000
      7          6           0       -0.284706    2.025369    0.000000
      8          1           0       -2.066389   -0.001933    0.000000
      9          1           0       -1.562659   -2.446195    0.000000
     10          1           0        0.792117   -3.216826    0.000000
     11          1           0        2.643889   -1.570591    0.000000
     12          1           0        2.132755    0.860849    0.000000
     13          8           0       -1.391038    2.516976    0.000000
     14          1           0        0.618450    2.672059    0.000000
 ---------------------------------------------------------------------

 SCF Done:  E(RHF) =  -343.514213270     A.U. after   16 cycles
 E2 =    -0.1151838488D+01 EUMP2 =    -0.34466605175802D+03

 The electronic state is 1-A'.
 Alpha  occ. eigenvalues --  -20.55815 -11.34039 -11.26509 -11.26217 -11.25844
 Alpha  occ. eigenvalues --  -11.25695 -11.25512 -11.25336  -1.39626  -1.17596
 Alpha  occ. eigenvalues --   -1.05393  -1.03746  -0.89704  -0.84974  -0.79533
 Alpha  occ. eigenvalues --   -0.72340  -0.68218  -0.65714  -0.62400  -0.61867
 Alpha  occ. eigenvalues --   -0.60821  -0.55662  -0.53372  -0.51292  -0.50405
 Alpha  occ. eigenvalues --   -0.43080  -0.35737  -0.35398
 Alpha virt. eigenvalues --    0.03351   0.04316   0.05049   0.05843   0.06298
 Alpha virt. eigenvalues --    0.07318   0.08779   0.09157   0.10348   0.12360
 Alpha virt. eigenvalues --    0.12954   0.13364   0.14578   0.16162   0.16581

 Mulliken atomic charges:
              1
     1  C    0.152353
     2  C   -1.417628
     3  C    1.535086
     4  C   -0.500486
     5  C    0.084631
     6  C   -0.503206
     7  C   -0.248779
     8  H    0.203514
     9  H    0.205147
    10  H    0.184787
    11  H    0.205088
    12  H    0.150258
    13  O   -0.201586
    14  H    0.150819
 Sum of Mulliken atomic charges =   0.00000

 Dipole moment (field-independent basis, Debye):
    X=              2.1686    Y=             -2.3217    Z=              0.0000  Tot=              3.1769
 Quadrupole moment (field-independent basis, Debye-Ang):
   XX=            -45.5274   YY=            -48.0243   ZZ=            -50.2802
   XY=              6.0732   XZ=              0.0000   YZ=              0.0000

 Normal termination of Gaussian 09 at Fri Dec  3 14:23:04 2021.
