 Gaussian 09, Revision A.02,
 Gaussian 09:  EM64L-G09RevA.02 11-Jun-2009

 -----------------------------
 #P MP2/6-311++G** DENSITY=MP2
 -----------------------------

 -------
 C8H8_2+
 -------
 Symbolic Z-matrix:
 Charge =  2 Multiplicity = 1

                         Standard orientation:
 ---------------------------------------------------------------------
 Center     Atomic      Atomic             Coordinates (Angstroms)
 Number     Number       Type             X           Y           Z
 ---------------------------------------------------------------------
      1          6           0        1.699712   -0.704037    0.000000
      2          6           0        1.699712    0.704046    0.000000
      3          6           0        0.704035    1.699712    0.000000
      4          6           0       -0.704047    1.699713    0.000000
      5          6           0       -1.699713    0.704036    0.000000
      6          6           0       -1.699713   -0.704046    0.000000
      7          6           0       -0.704034   -1.699709    0.000000
      8          6           0        0.704049   -1.699716    0.000000
      9          1           0        2.705418   -1.120621    0.000000
     10          1           0        2.705417    1.120632    0.000000
     11          1           0        1.120614    2.705421    0.000000
     12          1           0       -1.120640    2.705415    0.000000
     13          1           0       -2.705420    1.120619    0.000000
     14          1           0       -2.705418   -1.120631    0.000000
     15          1           0       -1.120617   -2.705416    0.000000
     16          1           0        1.120637   -2.705419    0.000000
 ---------------------------------------------------------------------

 SCF Done:  E(RHF) =  -306.899180340     A.U. after    9 cycles
 E2 =    -0.1061115043D+01 EUMP2 =    -0.30796029538280D+03

 The electronic state is 1-A'.
 Alpha  occ. eigenvalues --  -11.67265 -11.67233 -11.67233 -11.67154 -11.67154
 Alpha  occ. eigenvalues --  -11.67074 -11.67074 -11.67041  -1.53321  -1.47331
 Alpha  occ. eigenvalues --   -1.47331  -1.34502  -1.34501  -1.19372  -1.19372
 Alpha  occ. eigenvalues --   -1.09686  -1.05813  -1.03183  -1.03183  -0.99611
 Alpha  occ. eigenvalues --   -0.91348  -0.91347  -0.89447  -0.89447  -0.86280
 Alpha  occ. eigenvalues --   -0.76207  -0.76207
 Alpha virt. eigenvalues --   -0.40193  -0.40192  -0.21365  -0.18147  -0.18147
 Alpha virt. eigenvalues --   -0.16382  -0.16382  -0.15560  -0.15438  -0.14918
 Alpha virt. eigenvalues --   -0.14918  -0.12080  -0.12080  -0.11933  -0.11933

 Mulliken atomic charges:
              1
     1  C   -0.074451
     2  C   -0.074468
     3  C   -0.074458
     4  C   -0.074463
     5  C   -0.074451
     6  C   -0.074466
     7  C   -0.074456
     8  C   -0.074465
     9  H    0.324459
    10  H    0.324460
    11  H    0.324460
    12  H    0.324460
    13  H    0.324459
    14  H    0.324461
    15  H    0.324458
    16  H    0.324461
 Sum of Mulliken atomic charges =   2.00000

 Dipole moment (field-independent basis, Debye):
    X=              0.0000    Y=              0.0000    Z=              0.0000  Tot=              0.0000
 Quadrupole moment (field-independent basis, Debye-Ang):
   XX=             -9.8870   YY=             -9.8870   ZZ=            -44.9737
   XY=             -0.0001   XZ=              0.0000   YZ=              0.0000

 Normal termination of Gaussian 09 at Fri Dec  3 16:51:50 2021.
