 Gaussian 09, Revision A.02,
 Gaussian 09:  EM64L-G09RevA.02 11-Jun-2009

 -----------------------------
 #P MP2/6-311++G** DENSITY=MP2
 -----------------------------

 ---
 CH+
 ---
 Symbolic Z-matrix:
 Charge =  1 Multiplicity = 1

                         Standard orientation:
 ---------------------------------------------------------------------
 Center     Atomic      Atomic             Coordinates (Angstroms)
 Number     Number       Type             X           Y           Z
 ---------------------------------------------------------------------
      1          6           0       -1.199545    0.348803    0.000000
      2          1           0       -2.209841    0.728029    0.000000
      3          6           0       -0.787183   -0.932269    0.000000
      4          1           0       -1.390093   -1.831539    0.000000
      5          6           0        1.199544    0.348812    0.000000
      6          1           0        2.209840    0.728037    0.000000
      7          6           0        0.787184   -0.932265    0.000000
      8          1           0        1.390101   -1.831530    0.000000
      9          6           0        0.000000    1.160087    0.000000
     10          1           0       -0.000004    2.247993    0.000000
 ---------------------------------------------------------------------

 SCF Done:  E(RHF) =  -191.942374883     A.U. after   13 cycles
 E2 =    -0.6466733133D+00 EUMP2 =    -0.19258904819670D+03

 The electronic state is 1-A'.
 Alpha  occ. eigenvalues --  -11.56930 -11.51292 -11.51242 -11.45211 -11.45208
 Alpha  occ. eigenvalues --   -1.40988  -1.22173  -1.18056  -0.98408  -0.98147
 Alpha  occ. eigenvalues --   -0.93925  -0.81302  -0.79185  -0.77501  -0.74782
 Alpha  occ. eigenvalues --   -0.70795  -0.55335
 Alpha virt. eigenvalues --   -0.24245  -0.08604  -0.07081  -0.06478  -0.04289
 Alpha virt. eigenvalues --   -0.04233  -0.03321  -0.02073  -0.01795  -0.01538
 Alpha virt. eigenvalues --    0.00915   0.01039   0.01275   0.01401   0.04217

 Mulliken atomic charges:
              1
     1  C   -0.380374
     2  H    0.283138
     3  C   -0.001630
     4  H    0.303454
     5  C   -0.380381
     6  H    0.283138
     7  C   -0.001611
     8  H    0.303456
     9  C    0.262934
    10  H    0.327877
 Sum of Mulliken atomic charges =   1.00000

 Dipole moment (field-independent basis, Debye):
    X=              0.0001    Y=              0.4722    Z=              0.0000  Tot=              0.4722
 Quadrupole moment (field-independent basis, Debye-Ang):
   XX=            -18.9620   YY=            -15.3874   ZZ=            -29.3647
   XY=             -0.0001   XZ=              0.0000   YZ=              0.0000

 Normal termination of Gaussian 09 at Wed Dec  8 09:29:03 2021.
