 Gaussian 09, Revision A.02,
 Gaussian 09:  EM64L-G09RevA.02 11-Jun-2009

 -----------------------------
 #P MP2/6-311++G** DENSITY=MP2
 -----------------------------

 -------
 Boat-10
 -------
 Symbolic Z-matrix:
 Charge =  0 Multiplicity = 1

                         Standard orientation:
 ---------------------------------------------------------------------
 Center     Atomic      Atomic             Coordinates (Angstroms)
 Number     Number       Type             X           Y           Z
 ---------------------------------------------------------------------
      1          6           0        0.007277    1.394112   -0.040580
      2          6           0       -1.204594    0.701691   -0.040580
      3          6           0       -1.204594   -0.688230    0.080985
      4          6           0       -0.007277   -1.394112   -0.040580
      5          6           0        1.204594   -0.701691   -0.040580
      6          6           0        1.204594    0.688230    0.080985
      7          1           0        0.015047    2.478030   -0.068802
      8          1           0       -2.142318    1.245395   -0.069050
      9          1           0       -2.145048   -1.225507    0.138898
     10          1           0       -0.015047   -2.478030   -0.068802
     11          1           0        2.142318   -1.245395   -0.069050
     12          1           0        2.145048    1.225507    0.138898
 ---------------------------------------------------------------------

 SCF Done:  E(RHF) =  -230.751835342     A.U. after   14 cycles
 E2 =    -0.8294843279D+00 EUMP2 =    -0.23158131967027D+03

 The electronic state is 1-A.
 Alpha  occ. eigenvalues --  -11.23918 -11.23870 -11.23853 -11.23747 -11.23728
 Alpha  occ. eigenvalues --  -11.23677  -1.15251  -1.01607  -1.01593  -0.82459
 Alpha  occ. eigenvalues --   -0.82456  -0.71062  -0.64494  -0.61953  -0.58988
 Alpha  occ. eigenvalues --   -0.58877  -0.50512  -0.49648  -0.49249  -0.33611
 Alpha  occ. eigenvalues --   -0.33599
 Alpha virt. eigenvalues --    0.04204   0.04900   0.04932   0.06625   0.06892
 Alpha virt. eigenvalues --    0.09034   0.10595   0.10934   0.12438   0.14768
 Alpha virt. eigenvalues --    0.15222   0.16078   0.16318   0.18113   0.18279

 Mulliken atomic charges:
              1
     1  C   -0.173112
     2  C   -0.173002
     3  C   -0.177897
     4  C   -0.173112
     5  C   -0.173002
     6  C   -0.177897
     7  H    0.176500
     8  H    0.176515
     9  H    0.170996
    10  H    0.176500
    11  H    0.176515
    12  H    0.170996
 Sum of Mulliken atomic charges =   0.00000

 Dipole moment (field-independent basis, Debye):
    X=              0.0000    Y=              0.0000    Z=              0.0008  Tot=              0.0008
 Quadrupole moment (field-independent basis, Debye-Ang):
   XX=            -32.6435   YY=            -32.5929   ZZ=            -40.7789
   XY=             -0.0422   XZ=              0.0000   YZ=              0.0000

 Normal termination of Gaussian 09 at Fri Dec  3 11:52:07 2021.
