 Gaussian 16, Revision A.03,
 Gaussian 16:  ES64L-G16RevA.03 25-Dec-2016

 ------------------------------------
 #P MP2/6-311++G** nosymm Density=MP2
 ------------------------------------

 ---
 CH-
 ---
 Symbolic Z-matrix:
 Charge = -1 Multiplicity = 1

                          Input orientation:
 ---------------------------------------------------------------------
 Center     Atomic      Atomic             Coordinates (Angstroms)
 Number     Number       Type             X           Y           Z
 ---------------------------------------------------------------------
      1          6           0        1.144849    0.372001    0.000000
      2          1           0        2.177331    0.707445    0.000000
      3          6           0        0.707543   -0.973909    0.000000
      4          1           0        1.345710   -1.852134    0.000000
      5          6           0       -1.144849    0.372001    0.000000
      6          1           0       -2.177331    0.707445    0.000000
      7          6           0       -0.707543   -0.973909    0.000000
      8          1           0       -1.345710   -1.852134    0.000000
      9          6           0        0.000000    1.203812    0.000000
     10          1           0        0.000000    2.289401    0.000000
 ---------------------------------------------------------------------

 SCF Done:  E(RHF) =  -192.248109018     A.U. after   12 cycles
 E2 =    -0.7230543977D+00 EUMP2 =    -0.19297116341566D+03

 Alpha  occ. eigenvalues --  -11.00587 -11.00517 -11.00517 -11.00394 -11.00394
 Alpha  occ. eigenvalues --   -0.92828  -0.72820  -0.72818  -0.51938  -0.51938
 Alpha  occ. eigenvalues --   -0.48497  -0.32829  -0.32825  -0.30431  -0.30430
 Alpha  occ. eigenvalues --   -0.28048  -0.07120  -0.07117
 Alpha virt. eigenvalues --    0.15645   0.15645   0.15806   0.17105   0.17105
 Alpha virt. eigenvalues --    0.28277   0.28282   0.28282   0.30066   0.30066
 Alpha virt. eigenvalues --    0.30329   0.30329   0.31697   0.31697   0.33155

 Mulliken charges:
               1
     1  C   -0.269764
     2  H    0.069810
     3  C   -0.269828
     4  H    0.069812
     5  C   -0.269764
     6  H    0.069810
     7  C   -0.269828
     8  H    0.069812
     9  C   -0.269867
    10  H    0.069810
 Sum of Mulliken charges =  -1.00000

 Dipole moment (field-independent basis, Debye):
    X=              0.0000    Y=             -0.0000    Z=              0.0000  Tot=              0.0000
 Quadrupole moment (field-independent basis, Debye-Ang):
   XX=            -39.0922   YY=            -39.0916   ZZ=            -41.9965
   XY=             -0.0000   XZ=             -0.0000   YZ=             -0.0000

 1\1\GINC-N01\SP\RMP2-FC\6-311++G(d,p)\C5H5(1-)\UNKNOWN\13-Feb-2025\0\\
 #P MP2/6-311++G** nosymm Density=MP2\\CH-\\-1,1\C,0,1.14484909,0.37200
 106,0.\H,0,2.17733117,0.70744508,0.\C,0,0.70754306,-0.97390904,0.\H,0,
 1.3457101,-1.85213411,0.\C,0,-1.14484909,0.37200106,0.\H,0,-2.17733117
 ,0.70744508,0.\C,0,-0.70754306,-0.97390904,0.\H,0,-1.3457101,-1.852134
 11,0.\C,0,0.,1.20381212,0.\H,0,0.,2.2894012,0.\\Version=ES64L-G16RevA.
 03\HF=-192.248109\MP2=-192.9711634\RMSD=1.411e-09\Dipole=0.,-0.0000005
 ,0.\Quadrupole=0.7196331,0.7200595,-1.4396927,0.,0.,0.\PG=C02V [C2(C1H

 Normal termination of Gaussian 16 at Thu Feb 13 09:47:47 2025.
